                  Welcome to Q-Chem
     A Quantum Leap Into The Future Of Chemistry


 Q-Chem 5.4 (devel), Q-Chem, Inc., Pleasanton, CA (2021)

 Yihan Shao,  Zhengting Gan,  E. Epifanovsky,  A. T. B. Gilbert,  M. Wormit,  
 J. Kussmann,  A. W. Lange,  A. Behn,  Jia Deng,  Xintian Feng,  D. Ghosh,  
 M. Goldey,  P. R. Horn,  L. D. Jacobson,  I. Kaliman,  T. Kus,  A. Landau,  
 Jie Liu,  E. I. Proynov,  R. M. Richard,  R. P. Steele,  E. J. Sundstrom,  
 H. L. Woodcock III,  P. M. Zimmerman,  D. Zuev,  B. Alam,  B. Albrecht,  
 A. Aldossary,  E. Alguire,  J. H. Andersen,  S. A. Baeppler,  D. Barton,  
 K. Begam,  Z. Benda,  Y. A. Bernard,  E. J. Berquist,  K. B. Bravaya,  
 H. Burton,  K. Carter-Fenk,  D. Casanova,  R. Chakraborty,  Chun-Min Chang,  
 Yunqing Chen,  A. Chien,  K. D. Closser,  V. Cofer-Shabica,  M. P. Coons,  
 S. Coriani,  S. Dasgupta,  A. L. Dempwolff,  M. Diedenhofen,  Hainam Do,  
 R. G. Edgar,  S. Ehlert,  Po-Tung Fang,  S. Faraji,  S. Fatehi,  
 Qingguo Feng,  J. Fosso-Tande,  J. Gayvert,  Qinghui Ge,  A. Ghysels,  
 G. Gidofalvi,  J. Gomes,  J. Gonthier,  C. Gonzalez-Espinoza,  S. Gulania,  
 A. Gunina,  D. Hait,  M. W. D. Hanson-Heine,  S. Hammes-Schiffer,  
 P. H. P. Harbach,  A. W. Hauser,  M. F. Herbst,  J. E. Herr,  
 E. G. Hohenstein,  Z. C. Holden,  S. Houck,  Xunkun Huang,  Kerwin Hui,  
 B. C. Huynh,  M. Ivanov,  T.-C. Jagau,  Hyunjun Ji,  Hanjie Jiang,  
 S. Kaehler,  B. Kaduk,  K. Khistyaev,  Jaehoon Kim,  P. Klunzinger,  K. Koh,  
 D. Kosenkov,  L. Koulias,  T. Kowalczyk,  C. M. Krauter,  A. Kunitsa,  
 Ka Un Lao,  A. Laurent,  K. V. Lawler,  Joonho Lee,  D. Lefrancois,  
 S. Lehtola,  D. S. Levine,  Rain Li,  Yi-Pei Li,  Jiashu Liang,  
 M. Liebenthal,  You-Sheng Lin,  Fenglai Liu,  Kuan-Yu Liu,  E. Livshits,  
 M. Loipersberger,  A. Luenser,  A. Manjanath,  P. Manohar,  E. Mansoor,  
 S. F. Manzer,  Shan-Ping Mao,  Yuezhi Mao,  N. Mardirossian,  
 A. V. Marenich,  T. Markovich,  L. A. Martinez-Martinez,  S. A. Maurer,  
 N. J. Mayhall,  S. Mason,  S. C. McKenzie,  P. F. McLaughlin,  
 M. F. S. J. Menger,  J.-M. Mewes,  P. Morgante,  A. F. Morrison,  
 J. W. Mullinax,  K. Nanda,  T. S. Nguyen-Beck,  R. Olivares-Amaya,  
 K. J. Oosterbaan,  G. Paran,  J. A. Parkhill,  Alexander C. Paul,  
 Suranjan K. Paul,  F. Pavosevic,  Zheng Pei,  T. M. Perrine,  F. Plasser,  
 P. Pokhilko,  S. Prager,  A. Prociuk,  E. Ramos,  B. Rana,  A. E. Rask,  
 A. Rettig,  D. R. Rehn,  F. Rob,  E. Rossomme,  T. Scheele,  M. Scheurer,  
 M. Schneider,  N. Sergueev,  S. M. Sharada,  S. Sharma,  W. Skomorowski,  
 D. W. Small,  T. Stauch,  C. J. Stein,  T. Stein,  Yu-Chuan Su,  
 S. P. Veccham,  Zhen Tao,  A. J. W. Thom,  A. Tkatchenko,  T. Tsuchimochi,  
 N. M. Tubman,  M. H. Vera,  M. L. Vidal,  L. Vogt,  O. Vydrov,  
 M. A. Watson,  J. Wenzel,  M. de Wergifosse,  T. A. Wesolowski,  A. White,  
 J. Witte,  A. Yamada,  Jun Yang,  K. Yao,  S. Yeganeh,  S. R. Yost,  
 Zhi-Qiang You,  A. Zech,  Igor Ying Zhang,  Yu Zhang,  Xing Zhang,  
 Yan Zhao,  Ying Zhu,  B. R. Brooks,  G. K. L. Chan,  C. J. Cramer,  
 M. S. Gordon,  S. Grimme,  W. J. Hehre,  A. Klamt,  M. W. Schmidt,  
 C. D. Sherrill,  D. G. Truhlar,  A. Aspuru-Guzik,  R. Baer,  A. T. Bell,  
 N. A. Besley,  Jeng-Da Chai,  A. E. DePrince, III,  R. A. DiStasio Jr.,  
 A. Dreuw,  B. D. Dunietz,  T. R. Furlani,  Chao-Ping Hsu,  Yousung Jung,  
 Jing Kong,  D. S. Lambrecht,  WanZhen Liang,  C. Ochsenfeld,  
 V. A. Rassolov,  L. V. Slipchenko,  J. E. Subotnik,  T. Van Voorhis,  
 J. M. Herbert,  A. I. Krylov,  P. M. W. Gill,  M. Head-Gordon

 Contributors to earlier versions of Q-Chem not listed above: 
 R. D. Adamson,  B. Austin,  J. Baker,  G. J. O. Beran,  K. Brandhorst,  
 S. T. Brown,  E. F. C. Byrd,  A. K. Chakraborty,  C.-L. Cheng,  
 Siu Hung Chien,  D. M. Chipman,  D. L. Crittenden,  H. Dachsel,  
 R. J. Doerksen,  A. D. Dutoi,  L. Fusti-Molnar,  W. A. Goddard III,  
 A. Golubeva-Zadorozhnaya,  S. R. Gwaltney,  G. Hawkins,  A. Heyden,  
 S. Hirata,  G. Kedziora,  F. J. Keil,  C. Kelley,  Jihan Kim,  R. A. King,  
 R. Z. Khaliullin,  P. P. Korambath,  W. Kurlancheek,  A. M. Lee,  M. S. Lee,  
 S. V. Levchenko,  Ching Yeh Lin,  D. Liotard,  R. C. Lochan,  I. Lotan,  
 P. E. Maslen,  N. Nair,  D. P. O'Neill,  D. Neuhauser,  E. Neuscamman,  
 C. M. Oana,  R. Olson,  B. Peters,  R. Peverati,  P. A. Pieniazek,  
 Y. M. Rhee,  J. Ritchie,  M. A. Rohrdanz,  E. Rosta,  N. J. Russ,  
 H. F. Schaefer III,  N. E. Schultz,  N. Shenvi,  A. C. Simmonett,  A. Sodt,  
 D. Stuck,  K. S. Thanthiriwatte,  V. Vanovschi,  Tao Wang,  A. Warshel,  
 C. F. Williams,  Q. Wu,  X. Xu,  W. Zhang

 Please cite Q-Chem as follows:
 Y. Shao et al., Mol. Phys. 113, 184-215 (2015)
 DOI: 10.1080/00268976.2014.952696

 Q-Chem 5.4.0 for Intel X86 EM64T Linux

 Parts of Q-Chem use Armadillo 9.800.1 (Horizon Scraper).
 http://arma.sourceforge.net/

 Q-Chem begins on Thu Jun 20 17:56:09 2024  

node15
Host: 0

     Scratch files written to /scratch/debashree/qchem11365//
Processing $rem in /home/debashree/Qchem5.3/qchem5.3/config/preferences:
Processing $rem in /home/debashree/.qchemrc:

Checking the input file for inconsistencies... 	...done.

--------------------------------------------------------------
User input:
--------------------------------------------------------------
$molecule
0 1 
C	 0.99086	-0.26623	 0.96805
C	 1.2376		 0.25632	-0.38831
C	 0.27806	 0.2061		-1.40641
C	 0.57398	 0.66976	-2.6811
C	 1.83253	 1.19		-2.96838
C	 2.80033	 1.23014	-1.96961
C	 2.50617	 0.75861	-0.69674
C	-0.12407	-0.26101	 1.71287
C	-1.4311		 0.37695	 1.47448
C	-1.5684		 1.60958	 0.82512
C	-2.81965	 2.18904	 0.66446
C	-3.95929	 1.55397	 1.14953
C	-3.83451	 0.33697	 1.81193
C	-2.58146	-0.23805	 1.98011
H	 1.85126	-0.74471	 1.41512
H	-0.69523	-0.20771	-1.20136
H	-0.17704	 0.6181		-3.45426
H	 2.05918	 1.54927	-3.96002
H	 3.78257	 1.62243	-2.1829
H	 3.26412	 0.78679	 0.07195
H	-0.06223	-0.7936		 2.65172
H	-0.69341	 2.11897	 0.45746
H	-2.90503	 3.14215	 0.1657
H	-4.92998	 2.00713	 1.02204
H	-4.70945	-0.16001	 2.20143
H	-2.49144	-1.17974	 2.50099
$end

$rem
JOBTYPE			= opt
METHOD  		= B3LYP
BASIS   		= 6-31G
GEOM_OPT_MAX_CYCLES 	= 250
MAX_SCF_CYCLES 		= 200
SYMMETRY 		= false
MEM_TOTAL 		= 6400
MEM_STATIC 		= 2000
$end
--------------------------------------------------------------
 ----------------------------------------------------------------
             Standard Nuclear Orientation (Angstroms)
    I     Atom           X                Y                Z
 ----------------------------------------------------------------
    1      C      -0.6682789875    -1.8458632640     0.0087022960
    2      C      -1.6260279095    -0.7270203657     0.0762237819
    3      C      -1.3901693322     0.4285290092     0.8304406232
    4      C      -2.3435022808     1.4354094711     0.8992291582
    5      C      -3.5522718816     1.3104210964     0.2207149602
    6      C      -3.8056780476     0.1595151441    -0.5188730173
    7      C      -2.8547946713    -0.8509673833    -0.5806350582
    8      C       0.6725255881    -1.8439072378    -0.0009023724
    9      C       1.6272709863    -0.7235120760    -0.0738823739
   10      C       1.3785434099     0.4406587993    -0.8105893593
   11      C       2.3300260328     1.4489629876    -0.8828082750
   12      C       3.5495695676     1.3172361098    -0.2249726300
   13      C       3.8158949478     0.1577929682     0.4962729604
   14      C       2.8670618088    -0.8544329418     0.5609351351
   15      H      -1.1360204082    -2.8203337430    -0.0182811090
   16      H      -0.4648149849     0.5314537773     1.3723847779
   17      H      -2.1457481207     2.3165851582     1.4899057892
   18      H      -4.2909442980     2.0946723613     0.2764649351
   19      H      -4.7429826218     0.0470993054    -1.0413692376
   20      H      -3.0607242651    -1.7443718000    -1.1512384070
   21      H       1.1422240700    -2.8171315283     0.0327641206
   22      H       0.4447776548     0.5496513073    -1.3363856086
   23      H       2.1222426037     2.3368744783    -1.4597911044
   24      H       4.2861168587     2.1033608613    -0.2828753479
   25      H       4.7616692800     0.0396215017     1.0020058851
   26      H       3.0831888471    -1.7544155840     1.1172803318
 ----------------------------------------------------------------
 Molecular Point Group                 C1    NOp =  1
 Largest Abelian Subgroup              C1    NOp =  1
 Nuclear Repulsion Energy =         766.28344373 hartrees
 There are       48 alpha and       48 beta electrons
 Requested basis set is 6-31G
 There are 66 shells and 150 basis functions

 Total QAlloc Memory Limit   6400 MB
 Mega-Array Size      1956 MB
 MEM_STATIC part      2000 MB
 A cutoff of  1.0D-11 yielded   1724 shell pairs
 There are      9908 function pairs
 Smallest overlap matrix eigenvalue = 5.96E-04

 Scale SEOQF with 1.000000e-01/1.000000e-01/1.000000e+00

 Standard Electronic Orientation quadrupole field applied
 Nucleus-field energy     =    -0.0000000067 hartrees
 Guess from superposition of atomic densities
 Warning:  Energy on first SCF cycle will be non-variational
 SAD guess density has 96.000000 electrons

 -----------------------------------------------------------------------
  General SCF calculation program by
  Eric Jon Sundstrom, Paul Horn, Yuezhi Mao, Dmitri Zuev, Alec White,
  David Stuck, Shaama M.S., Shane Yost, Joonho Lee, David Small,
  Daniel Levine, Susi Lehtola, Hugh Burton, Evgeny Epifanovsky,
  Bang C. Huynh
 -----------------------------------------------------------------------
 Exchange:     0.2000 Hartree-Fock + 0.0800 Slater + 0.7200 B88
 Correlation:  0.1900 VWN1RPA + 0.8100 LYP
 Using SG-1 standard quadrature grid
 using 6 threads for integral computing
 -------------------------------------------------------
 OpenMP Integral computing Module                
 Release: version 1.0, May 2013, Q-Chem Inc. Pittsburgh 
 -------------------------------------------------------
 A restricted SCF calculation will be
 performed using DIIS
 SCF converges when DIIS error is below 1.0e-08
 ---------------------------------------
  Cycle       Energy         DIIS error
 ---------------------------------------
    1    -544.0262618507      8.24e-02  
    2    -540.4146259872      6.99e-03  
    3    -540.4492476129      6.29e-03  
    4    -540.5798401269      6.64e-04  
    5    -540.5805967787      4.77e-04  
    6    -540.5813874237      9.25e-05  
    7    -540.5814124592      3.43e-05  
    8    -540.5814157656      9.80e-06  
    9    -540.5814160661      1.96e-06  
   10    -540.5814160795      6.83e-07  
   11    -540.5814160812      1.18e-07  
   12    -540.5814160804      3.37e-08  
   13    -540.5814160802      1.68e-08  
   14    -540.5814160800      4.93e-09  Convergence criterion met
 ---------------------------------------
 SCF time:   CPU 52.45s  wall 19.00s 
 SCF   energy in the final basis set =     -540.5814160800
 Total energy in the final basis set =     -540.5814160800

 --------------------------------------------------------------

                    Orbital Energies (a.u.)
 --------------------------------------------------------------

 Alpha MOs
 -- Occupied --
-10.1931 -10.1931 -10.1863 -10.1855 -10.1831 -10.1831 -10.1826 -10.1825
-10.1820 -10.1820 -10.1819 -10.1819 -10.1801 -10.1799  -0.8662  -0.8588
 -0.8007  -0.7597  -0.7487  -0.7460  -0.7182  -0.6343  -0.6105  -0.6027
 -0.5973  -0.5552  -0.5255  -0.4963  -0.4793  -0.4635  -0.4537  -0.4445
 -0.4322  -0.4228  -0.4224  -0.4155  -0.3860  -0.3708  -0.3685  -0.3502
 -0.3437  -0.3378  -0.3306  -0.2987  -0.2579  -0.2526  -0.2471  -0.2106
 -- Virtual --
 -0.0383  -0.0008   0.0117   0.0151   0.0678   0.0978   0.1039   0.1168
  0.1422   0.1512   0.1633   0.1642   0.1676   0.1779   0.1803   0.1933
  0.1940   0.2069   0.2151   0.2521   0.2864   0.3100   0.3117   0.3193
  0.3237   0.3332   0.3387   0.3525   0.4159   0.4360   0.4604   0.5016
  0.5173   0.5336   0.5441   0.5549   0.5622   0.5727   0.5834   0.5880
  0.5952   0.5958   0.6075   0.6136   0.6216   0.6265   0.6270   0.6296
  0.6502   0.6510   0.6581   0.6583   0.6600   0.6622   0.6752   0.6798
  0.6992   0.7083   0.7395   0.7515   0.7903   0.8087   0.8520   0.8527
  0.8620   0.8665   0.8687   0.8795   0.8801   0.9020   0.9141   0.9247
  0.9281   0.9495   0.9650   0.9801   0.9837   1.0138   1.0252   1.0518
  1.0615   1.0758   1.0814   1.1050   1.1256   1.1747   1.1851   1.1865
  1.1964   1.2272   1.2407   1.2679   1.2925   1.3360   1.3785   1.4605
  1.4743   1.4874   1.5153   1.5204   1.9118   1.9529
 --------------------------------------------------------------

          Ground-State Mulliken Net Atomic Charges

     Atom                 Charge (a.u.)
  ----------------------------------------
      1 C                    -0.158973
      2 C                     0.064386
      3 C                    -0.133071
      4 C                    -0.134336
      5 C                    -0.117748
      6 C                    -0.129513
      7 C                    -0.153813
      8 C                    -0.157326
      9 C                     0.066948
     10 C                    -0.133631
     11 C                    -0.134556
     12 C                    -0.117667
     13 C                    -0.129479
     14 C                    -0.154824
     15 H                     0.121618
     16 H                     0.142709
     17 H                     0.124986
     18 H                     0.123716
     19 H                     0.123933
     20 H                     0.124985
     21 H                     0.121048
     22 H                     0.143169
     23 H                     0.124954
     24 H                     0.123686
     25 H                     0.123883
     26 H                     0.124915
  ----------------------------------------
  Sum of atomic charges =     0.000000

 -----------------------------------------------------------------
                    Cartesian Multipole Moments
 -----------------------------------------------------------------
    Charge (ESU x 10^10)
                 0.0000
    Dipole Moment (Debye)
         X      -0.0025      Y       0.1511      Z       0.0020
       Tot       0.1512
    Quadrupole Moments (Debye-Ang)
        XX     -74.4534     XY      -0.0564     YY     -74.9899
        XZ       4.0958     YZ       0.0111     ZZ     -83.3752
    Octopole Moments (Debye-Ang^2)
       XXX       0.5024    XXY      11.5684    XYY       0.1087
       YYY      -1.6783    XXZ      -0.2217    XYZ     -11.5823
       YYZ       0.0130    XZZ      -0.3485    YZZ       3.4699
       ZZZ       0.0645
    Hexadecapole Moments (Debye-Ang^3)
      XXXX   -3165.0443   XXXY      -1.3913   XXYY    -642.7079
      XYYY       0.0670   YYYY    -749.0694   XXXZ     108.3740
      XXYZ       0.0282   XYYZ      -6.8995   YYYZ      -0.2206
      XXZZ    -627.2750   XYZZ      -0.0984   YYZZ    -175.3669
      XZZZ       8.6141   YZZZ       0.4198   ZZZZ    -279.2891
 -----------------------------------------------------------------
 Calculating analytic gradient of the SCF energy
 Gradient of SCF Energy
            1           2           3           4           5           6
    1   0.0078722  -0.0057819  -0.0025273  -0.0010727   0.0031606   0.0036588
    2  -0.0029178   0.0060934  -0.0019329  -0.0036422  -0.0023713  -0.0001043
    3  -0.0003715   0.0002599  -0.0028767  -0.0024644   0.0002880   0.0017906
            7           8           9          10          11          12
    1   0.0028831  -0.0076158   0.0056824   0.0024766   0.0010988  -0.0031153
    2   0.0027788  -0.0029508   0.0062295  -0.0019911  -0.0036447  -0.0025104
    3   0.0029127   0.0002868  -0.0003705   0.0028396   0.0023348  -0.0001671
           13          14          15          16          17          18
    1  -0.0037307  -0.0028942   0.0034074  -0.0040324  -0.0008771   0.0032747
    2   0.0000564   0.0026378   0.0052314  -0.0002630  -0.0039528  -0.0035158
    3  -0.0017647  -0.0028476   0.0006596  -0.0022718  -0.0026895  -0.0002660
           19          20          21          22          23          24
    1   0.0042075   0.0006936  -0.0035364   0.0040705   0.0009201  -0.0032884
    2   0.0005226   0.0041161   0.0052127  -0.0002773  -0.0039799  -0.0034783
    3   0.0023621   0.0023762  -0.0005973   0.0022508   0.0026299   0.0002698
           25          26
    1  -0.0042352  -0.0006988
    2   0.0005072   0.0041465
    3  -0.0022799  -0.0022936
 Max gradient component =       7.872E-03
 RMS gradient           =       3.159E-03
 Gradient time:  CPU 11.81 s  wall 6.16 s
 Geometry Optimization Parameters
   NAtoms,    NIC,     NZ,  NCons,   NDum,   NFix, NCnnct, MaxDiis
       26     181       0       0       0       0       0       0


** GEOMETRY OPTIMIZATION IN DELOCALIZED INTERNAL COORDINATES **
   Searching for a Minimum

   Optimization Cycle:   1

                       Coordinates (Angstroms)
     ATOM                X               Y               Z
      1  C        -0.6682789875   -1.8458632640    0.0087022960
      2  C        -1.6260279095   -0.7270203657    0.0762237819
      3  C        -1.3901693322    0.4285290092    0.8304406232
      4  C        -2.3435022808    1.4354094711    0.8992291582
      5  C        -3.5522718816    1.3104210964    0.2207149602
      6  C        -3.8056780476    0.1595151441   -0.5188730173
      7  C        -2.8547946713   -0.8509673833   -0.5806350582
      8  C         0.6725255881   -1.8439072378   -0.0009023724
      9  C         1.6272709863   -0.7235120760   -0.0738823739
     10  C         1.3785434099    0.4406587993   -0.8105893593
     11  C         2.3300260328    1.4489629876   -0.8828082750
     12  C         3.5495695676    1.3172361098   -0.2249726300
     13  C         3.8158949478    0.1577929682    0.4962729604
     14  C         2.8670618088   -0.8544329418    0.5609351351
     15  H        -1.1360204082   -2.8203337430   -0.0182811090
     16  H        -0.4648149849    0.5314537773    1.3723847779
     17  H        -2.1457481207    2.3165851582    1.4899057892
     18  H        -4.2909442980    2.0946723613    0.2764649351
     19  H        -4.7429826218    0.0470993054   -1.0413692376
     20  H        -3.0607242651   -1.7443718000   -1.1512384070
     21  H         1.1422240700   -2.8171315283    0.0327641206
     22  H         0.4447776548    0.5496513073   -1.3363856086
     23  H         2.1222426037    2.3368744783   -1.4597911044
     24  H         4.2861168587    2.1033608613   -0.2828753479
     25  H         4.7616692800    0.0396215017    1.0020058851
     26  H         3.0831888471   -1.7544155840    1.1172803318
   Point Group: c1    Number of degrees of freedom:    72


   Energy is   -540.581416080


 Attempting to generate delocalized internal coordinates
 Initial Hessian constructed with Jon Baker's OPTIMIZE code

 72 Hessian modes will be used to form the next step
  Hessian Eigenvalues:
     0.012574    0.012642    0.019495    0.019504    0.021544    0.021571
     0.022641    0.022653    0.023116    0.023122    0.023242    0.023248
     0.023523    0.023524    0.023537    0.023538    0.023637    0.023640
     0.023725    0.023730    0.023758    0.023760    0.030233    0.159985
     0.159985    0.159985    0.159987    0.159990    0.159990    0.159992
     0.159993    0.159996    0.159997    0.159998    0.159998    0.219977
     0.219979    0.219998    0.219999    0.220006    0.220007    0.234576
     0.234578    0.249503    0.249520    0.352268    0.352867    0.358436
     0.358541    0.360055    0.360074    0.361022    0.361025    0.361166
     0.361189    0.361376    0.361405    0.363224    0.363405    0.422105
     0.422195    0.425000    0.425031    0.460994    0.461098    0.464629
     0.464712    0.471683    0.471728    0.475646    0.475706    0.570171

 Minimum search - taking simple RFO step
 Searching for Lamda that Minimizes Along All modes
 Value Taken    Lamda =  -0.00397043
 Step Taken.  Stepsize is  0.121884

                             Maximum     Tolerance    Cnvgd?
         Gradient           0.022276      0.000300      NO
         Displacement       0.071897      0.001200      NO
         Energy change     *********      0.000001      NO


 New Cartesian Coordinates Obtained by Inverse Iteration

 Displacement from previous Coordinates is:  0.783162
 ----------------------------------------------------------------
             Standard Nuclear Orientation (Angstroms)
    I     Atom           X                Y                Z
 ----------------------------------------------------------------
    1      C      -0.6753892359    -1.8233935212     0.0039918833
    2      C      -1.6527461672    -0.7140948670     0.0800181637
    3      C      -1.4522071210     0.4354350272     0.8749609120
    4      C      -2.4338419445     1.4276641196     0.9576570940
    5      C      -3.6394190889     1.2949557223     0.2540899067
    6      C      -3.8612628585     0.1518301271    -0.5243440555
    7      C      -2.8824055751    -0.8446191171    -0.6003887218
    8      C       0.6791458391    -1.8209786160     0.0011010314
    9      C       1.6535558077    -0.7098184639    -0.0786324789
   10      C       1.4421997868     0.4483890516    -0.8582204605
   11      C       2.4220767056     1.4421492940    -0.9425355049
   12      C       3.6369338242     1.3026831498    -0.2563778808
   13      C       3.8698384483     0.1509304626     0.5058133285
   14      C       2.8926012383    -0.8469519083     0.5834743238
   15      H      -1.1449332250    -2.8065539885    -0.0372737054
   16      H      -0.5320149579     0.5415113130     1.4379973512
   17      H      -2.2619625967     2.3013841168     1.5796039194
   18      H      -4.3998849092     2.0669617289     0.3217513086
   19      H      -4.7959146819     0.0331290309    -1.0644650427
   20      H      -3.0647468812    -1.7344568425    -1.1972071449
   21      H       1.1516978418    -2.8024766410     0.0466415596
   22      H       0.5152389087     0.5603069459    -1.4086562266
   23      H       2.2416427662     2.3225062760    -1.5525746241
   24      H       4.3957376183     2.0762200654    -0.3251979049
   25      H       4.8116993504     0.0265945384     1.0319524489
   26      H       3.0835149540    -1.7434185909     1.1675413742
 ----------------------------------------------------------------
 Molecular Point Group                 C1    NOp =  1
 Largest Abelian Subgroup              C1    NOp =  1
 Nuclear Repulsion Energy =         757.70527409 hartrees
 There are       48 alpha and       48 beta electrons
 Applying Cartesian multipole field
    Component          Value
    ---------          -----
     (2,0,0)        1.00000E-11
     (0,2,0)        2.00000E-11
     (0,0,2)       -3.00000E-10
 Nucleus-field energy     =    -0.0000000104 hartrees
 Requested basis set is 6-31G
 There are 66 shells and 150 basis functions
 A cutoff of  1.0D-11 yielded   1705 shell pairs
 There are      9823 function pairs
 Smallest overlap matrix eigenvalue = 6.49E-04
 Guess MOs from SCF MO coefficient file

 -----------------------------------------------------------------------
  General SCF calculation program by
  Eric Jon Sundstrom, Paul Horn, Yuezhi Mao, Dmitri Zuev, Alec White,
  David Stuck, Shaama M.S., Shane Yost, Joonho Lee, David Small,
  Daniel Levine, Susi Lehtola, Hugh Burton, Evgeny Epifanovsky,
  Bang C. Huynh
 -----------------------------------------------------------------------
 Exchange:     0.2000 Hartree-Fock + 0.0800 Slater + 0.7200 B88
 Correlation:  0.1900 VWN1RPA + 0.8100 LYP
 Using SG-1 standard quadrature grid
 using 6 threads for integral computing
 -------------------------------------------------------
 OpenMP Integral computing Module                
 Release: version 1.0, May 2013, Q-Chem Inc. Pittsburgh 
 -------------------------------------------------------
 A restricted SCF calculation will be
 performed using DIIS
 SCF converges when DIIS error is below 1.0e-08
 ---------------------------------------
  Cycle       Energy         DIIS error
 ---------------------------------------
    1    -540.5780970993      8.56e-04  
    2    -540.5827355470      1.95e-04  
    3    -540.5828175145      1.57e-04  
    4    -540.5828975981      4.04e-05  
    5    -540.5829024771      1.74e-05  
    6    -540.5829035119      2.64e-06  
    7    -540.5829035303      1.30e-06  
    8    -540.5829035357      3.41e-07  
    9    -540.5829035360      9.71e-08  
   10    -540.5829035355      2.70e-08  
   11    -540.5829035356      7.80e-09  Convergence criterion met
 ---------------------------------------
 SCF time:   CPU 40.71s  wall 13.00s 
 SCF   energy in the final basis set =     -540.5829035356
 Total energy in the final basis set =     -540.5829035356

 --------------------------------------------------------------

                    Orbital Energies (a.u.)
 --------------------------------------------------------------

 Alpha MOs
 -- Occupied --
-10.1974 -10.1973 -10.1907 -10.1900 -10.1867 -10.1867 -10.1862 -10.1862
-10.1857 -10.1857 -10.1857 -10.1857 -10.1842 -10.1841  -0.8607  -0.8538
 -0.7967  -0.7572  -0.7456  -0.7437  -0.7150  -0.6332  -0.6076  -0.6013
 -0.5954  -0.5531  -0.5215  -0.4950  -0.4764  -0.4633  -0.4524  -0.4432
 -0.4304  -0.4211  -0.4209  -0.4147  -0.3852  -0.3678  -0.3647  -0.3504
 -0.3437  -0.3377  -0.3311  -0.2965  -0.2564  -0.2509  -0.2467  -0.2103
 -- Virtual --
 -0.0404  -0.0025   0.0084   0.0114   0.0632   0.0956   0.1019   0.1144
  0.1399   0.1486   0.1605   0.1607   0.1622   0.1742   0.1767   0.1891
  0.1897   0.2013   0.2103   0.2469   0.2798   0.3057   0.3064   0.3127
  0.3168   0.3286   0.3315   0.3471   0.4074   0.4334   0.4582   0.4962
  0.5142   0.5320   0.5361   0.5489   0.5563   0.5648   0.5822   0.5826
  0.5912   0.5915   0.6039   0.6074   0.6189   0.6233   0.6242   0.6246
  0.6468   0.6478   0.6544   0.6560   0.6565   0.6589   0.6709   0.6769
  0.6969   0.7041   0.7325   0.7474   0.7886   0.7977   0.8439   0.8445
  0.8556   0.8622   0.8640   0.8741   0.8755   0.8974   0.9078   0.9160
  0.9226   0.9450   0.9576   0.9728   0.9774   1.0036   1.0194   1.0435
  1.0467   1.0648   1.0742   1.1064   1.1198   1.1668   1.1774   1.1808
  1.1914   1.2166   1.2278   1.2609   1.2816   1.3225   1.3362   1.4499
  1.4569   1.4795   1.5025   1.5058   1.8993   1.9319
 --------------------------------------------------------------

          Ground-State Mulliken Net Atomic Charges

     Atom                 Charge (a.u.)
  ----------------------------------------
      1 C                    -0.162225
      2 C                     0.066751
      3 C                    -0.134893
      4 C                    -0.133635
      5 C                    -0.120388
      6 C                    -0.129072
      7 C                    -0.156387
      8 C                    -0.160978
      9 C                     0.068846
     10 C                    -0.135390
     11 C                    -0.133727
     12 C                    -0.120348
     13 C                    -0.128957
     14 C                    -0.157343
     15 H                     0.123242
     16 H                     0.142014
     17 H                     0.126659
     18 H                     0.125217
     19 H                     0.125619
     20 H                     0.126311
     21 H                     0.122748
     22 H                     0.142270
     23 H                     0.126633
     24 H                     0.125217
     25 H                     0.125595
     26 H                     0.126221
  ----------------------------------------
  Sum of atomic charges =     0.000000

 -----------------------------------------------------------------
                    Cartesian Multipole Moments
 -----------------------------------------------------------------
    Charge (ESU x 10^10)
                -0.0000
    Dipole Moment (Debye)
         X      -0.0012      Y       0.1459      Z       0.0005
       Tot       0.1459
    Quadrupole Moments (Debye-Ang)
        XX     -74.2526     XY      -0.0489     YY     -75.3276
        XZ       4.1140     YZ       0.0106     ZZ     -83.2183
    Octopole Moments (Debye-Ang^2)
       XXX       0.4661    XXY      13.1344    XYY       0.1263
       YYY      -2.5289    XXZ      -0.1733    XYZ     -13.0726
       YYZ      -0.0162    XZZ      -0.3208    YZZ       3.8763
       ZZZ       0.0531
    Hexadecapole Moments (Debye-Ang^3)
      XXXX   -3289.1172   XXXY      -1.6941   XXYY    -663.2233
      XYYY      -0.3069   YYYY    -740.3397   XXXZ     125.8208
      XXYZ       0.0693   XYYZ      -4.4576   YYYZ      -0.2214
      XXZZ    -653.2491   XYZZ      -0.2662   YYZZ    -175.1726
      XZZZ      21.9461   YZZZ       0.3837   ZZZZ    -299.6928
 -----------------------------------------------------------------
 Calculating analytic gradient of the SCF energy
 Gradient of SCF Energy
            1           2           3           4           5           6
    1  -0.0007776  -0.0008580   0.0000920   0.0002370  -0.0007692  -0.0010977
    2  -0.0010665   0.0001190  -0.0003017   0.0007201   0.0006527   0.0002388
    3   0.0000096   0.0000076   0.0010717   0.0005508  -0.0000729  -0.0005107
            7           8           9          10          11          12
    1   0.0006111   0.0008353   0.0007843  -0.0001218  -0.0002598   0.0007967
    2  -0.0009125  -0.0010224   0.0001031  -0.0002473   0.0007464   0.0006257
    3  -0.0001386  -0.0000283  -0.0000501  -0.0010457  -0.0005267   0.0000929
           13          14          15          16          17          18
    1   0.0011106  -0.0006056  -0.0002575  -0.0004789   0.0000138  -0.0001596
    2   0.0002747  -0.0009652   0.0001612   0.0001484   0.0001907   0.0001194
    3   0.0004791   0.0001069  -0.0000581   0.0002793   0.0001838  -0.0000031
           19          20          21          22          23          24
    1  -0.0002128  -0.0001359   0.0002304   0.0005211  -0.0000056   0.0001521
    2   0.0000148  -0.0001230   0.0001677   0.0001464   0.0001876   0.0001300
    3  -0.0000526  -0.0000587   0.0001126  -0.0002647  -0.0001762   0.0000066
           25          26
    1   0.0002143   0.0001415
    2   0.0000072  -0.0001154
    3   0.0000477   0.0000378
 Max gradient component =       1.111E-03
 RMS gradient           =       4.802E-04
 Gradient time:  CPU 11.58 s  wall 4.32 s
 Geometry Optimization Parameters
   NAtoms,    NIC,     NZ,  NCons,   NDum,   NFix, NCnnct, MaxDiis
       26     181       0       0       0       0       0       0

 Cartesian Hessian Update
 Hessian updated using BFGS update


** GEOMETRY OPTIMIZATION IN DELOCALIZED INTERNAL COORDINATES **
   Searching for a Minimum

   Optimization Cycle:   2

                       Coordinates (Angstroms)
     ATOM                X               Y               Z
      1  C        -0.6753892359   -1.8233935212    0.0039918833
      2  C        -1.6527461672   -0.7140948670    0.0800181637
      3  C        -1.4522071210    0.4354350272    0.8749609120
      4  C        -2.4338419445    1.4276641196    0.9576570940
      5  C        -3.6394190889    1.2949557223    0.2540899067
      6  C        -3.8612628585    0.1518301271   -0.5243440555
      7  C        -2.8824055751   -0.8446191171   -0.6003887218
      8  C         0.6791458391   -1.8209786160    0.0011010314
      9  C         1.6535558077   -0.7098184639   -0.0786324789
     10  C         1.4421997868    0.4483890516   -0.8582204605
     11  C         2.4220767056    1.4421492940   -0.9425355049
     12  C         3.6369338242    1.3026831498   -0.2563778808
     13  C         3.8698384483    0.1509304626    0.5058133285
     14  C         2.8926012383   -0.8469519083    0.5834743238
     15  H        -1.1449332250   -2.8065539885   -0.0372737054
     16  H        -0.5320149579    0.5415113130    1.4379973512
     17  H        -2.2619625967    2.3013841168    1.5796039194
     18  H        -4.3998849092    2.0669617289    0.3217513086
     19  H        -4.7959146819    0.0331290309   -1.0644650427
     20  H        -3.0647468812   -1.7344568425   -1.1972071449
     21  H         1.1516978418   -2.8024766410    0.0466415596
     22  H         0.5152389087    0.5603069459   -1.4086562266
     23  H         2.2416427662    2.3225062760   -1.5525746241
     24  H         4.3957376183    2.0762200654   -0.3251979049
     25  H         4.8116993504    0.0265945384    1.0319524489
     26  H         3.0835149540   -1.7434185909    1.1675413742
   Point Group: c1    Number of degrees of freedom:    72


   Energy is   -540.582903536

 Hessian updated using BFGS update

 71 Hessian modes will be used to form the next step
  Hessian Eigenvalues:
     0.012599    0.013193    0.019499    0.019802    0.021545    0.021575
     0.022613    0.022649    0.023113    0.023120    0.023245    0.023269
     0.023523    0.023524    0.023537    0.023537    0.023638    0.023641
     0.023725    0.023730    0.023758    0.023760    0.031500    0.159558
     0.159985    0.159986    0.159989    0.159992    0.159993    0.159996
     0.159997    0.159998    0.159998    0.160312    0.219833    0.219977
     0.219979    0.219998    0.220006    0.226364    0.234577    0.235870
     0.249359    0.249512    0.344752    0.352572    0.358485    0.359003
     0.360064    0.360340    0.361024    0.361093    0.361178    0.361307
     0.361392    0.362719    0.363321    0.368334    0.422150    0.422938
     0.425006    0.425027    0.460481    0.461051    0.464671    0.467850
     0.471702    0.471843    0.475676    0.494179    0.597709

 Minimum search - taking simple RFO step
 Searching for Lamda that Minimizes Along All modes
 Value Taken    Lamda =  -0.00073666
 Step Taken.  Stepsize is  0.153745

                             Maximum     Tolerance    Cnvgd?
         Gradient           0.009057      0.000300      NO
         Displacement       0.114738      0.001200      NO
         Energy change     -0.001487      0.000001      NO


 New Cartesian Coordinates Obtained by Inverse Iteration

 Displacement from previous Coordinates is:  0.962656
 ----------------------------------------------------------------
             Standard Nuclear Orientation (Angstroms)
    I     Atom           X                Y                Z
 ----------------------------------------------------------------
    1      C      -0.6750664098    -1.8590696494     0.0015524769
    2      C      -1.6344943714    -0.7361359337     0.0621778020
    3      C      -1.3820377324     0.4467709603     0.7915680434
    4      C      -2.3425127494     1.4609090688     0.8627872276
    5      C      -3.5761475304     1.3179569622     0.2105611421
    6      C      -3.8460738657     0.1454333235    -0.5079400643
    7      C      -2.8884278315    -0.8723355112    -0.5736647562
    8      C       0.6787026616    -1.8566916711    -0.0002206486
    9      C       1.6352170279    -0.7317743762    -0.0623184775
   10      C       1.3745307010     0.4579613742    -0.7777854744
   11      C       2.3333356092     1.4736206470    -0.8487252618
   12      C       3.5737071739     1.3257572919    -0.2104574035
   13      C       3.8521025927     0.1464543040     0.4935157774
   14      C       2.8960299792    -0.8727442741     0.5589639563
   15      H      -1.1516641097    -2.8407315488    -0.0315756027
   16      H      -0.4354612662     0.5614721015     1.3099536516
   17      H      -2.1313935385     2.3608296217     1.4346356707
   18      H      -4.3201849980     2.1076887342     0.2691411083
   19      H      -4.8015791082     0.0212981754    -1.0107280083
   20      H      -3.1061827890    -1.7846492513    -1.1245113542
   21      H       1.1585000763    -2.8367170596     0.0350275600
   22      H       0.4231785729     0.5770170921    -1.2862364441
   23      H       2.1156782424     2.3787529293    -1.4098016178
   24      H       4.3162635962     2.1168950544    -0.2687426968
   25      H       4.8128509191     0.0182123364     0.9851387390
   26      H       3.1202829939    -1.7902922886     1.0984055091
 ----------------------------------------------------------------
 Molecular Point Group                 C1    NOp =  1
 Largest Abelian Subgroup              C1    NOp =  1
 Nuclear Repulsion Energy =         761.41664684 hartrees
 There are       48 alpha and       48 beta electrons
 Applying Cartesian multipole field
    Component          Value
    ---------          -----
     (2,0,0)        1.00000E-11
     (0,2,0)        2.00000E-11
     (0,0,2)       -3.00000E-10
 Nucleus-field energy     =    -0.0000000035 hartrees
 Requested basis set is 6-31G
 There are 66 shells and 150 basis functions
 A cutoff of  1.0D-11 yielded   1718 shell pairs
 There are      9872 function pairs
 Smallest overlap matrix eigenvalue = 6.48E-04
 Guess MOs from SCF MO coefficient file

 -----------------------------------------------------------------------
  General SCF calculation program by
  Eric Jon Sundstrom, Paul Horn, Yuezhi Mao, Dmitri Zuev, Alec White,
  David Stuck, Shaama M.S., Shane Yost, Joonho Lee, David Small,
  Daniel Levine, Susi Lehtola, Hugh Burton, Evgeny Epifanovsky,
  Bang C. Huynh
 -----------------------------------------------------------------------
 Exchange:     0.2000 Hartree-Fock + 0.0800 Slater + 0.7200 B88
 Correlation:  0.1900 VWN1RPA + 0.8100 LYP
 Using SG-1 standard quadrature grid
 using 6 threads for integral computing
 -------------------------------------------------------
 OpenMP Integral computing Module                
 Release: version 1.0, May 2013, Q-Chem Inc. Pittsburgh 
 -------------------------------------------------------
 A restricted SCF calculation will be
 performed using DIIS
 SCF converges when DIIS error is below 1.0e-08
 ---------------------------------------
  Cycle       Energy         DIIS error
 ---------------------------------------
    1    -540.5713663789      1.23e-03  
    2    -540.5826783146      1.44e-04  
    3    -540.5828222631      1.08e-04  
    4    -540.5828564934      4.18e-05  
    5    -540.5828623241      1.39e-05  
    6    -540.5828629250      3.15e-06  
    7    -540.5828629535      1.35e-06  
    8    -540.5828629599      2.22e-07  
    9    -540.5828629598      7.07e-08  
   10    -540.5828629609      2.26e-08  
   11    -540.5828629613      5.42e-09  Convergence criterion met
 ---------------------------------------
 SCF time:   CPU 40.94s  wall 14.00s 
 SCF   energy in the final basis set =     -540.5828629613
 Total energy in the final basis set =     -540.5828629613

 --------------------------------------------------------------

                    Orbital Energies (a.u.)
 --------------------------------------------------------------

 Alpha MOs
 -- Occupied --
-10.1972 -10.1972 -10.1904 -10.1897 -10.1871 -10.1870 -10.1866 -10.1865
-10.1862 -10.1862 -10.1860 -10.1860 -10.1839 -10.1838  -0.8612  -0.8534
 -0.7974  -0.7569  -0.7461  -0.7431  -0.7149  -0.6330  -0.6089  -0.6005
 -0.5953  -0.5527  -0.5219  -0.4943  -0.4771  -0.4640  -0.4524  -0.4426
 -0.4300  -0.4214  -0.4209  -0.4135  -0.3849  -0.3684  -0.3663  -0.3505
 -0.3435  -0.3370  -0.3313  -0.2982  -0.2570  -0.2519  -0.2461  -0.2089
 -- Virtual --
 -0.0424  -0.0033   0.0088   0.0129   0.0654   0.0954   0.1017   0.1139
  0.1397   0.1491   0.1607   0.1611   0.1633   0.1730   0.1758   0.1892
  0.1900   0.2029   0.2107   0.2461   0.2804   0.3042   0.3051   0.3121
  0.3187   0.3279   0.3333   0.3454   0.4102   0.4336   0.4601   0.4983
  0.5151   0.5299   0.5401   0.5479   0.5569   0.5715   0.5822   0.5829
  0.5895   0.5921   0.6053   0.6107   0.6207   0.6219   0.6238   0.6240
  0.6466   0.6484   0.6550   0.6553   0.6571   0.6586   0.6722   0.6771
  0.6942   0.7053   0.7335   0.7481   0.7820   0.8084   0.8439   0.8446
  0.8556   0.8621   0.8633   0.8746   0.8774   0.8980   0.9107   0.9213
  0.9254   0.9448   0.9606   0.9730   0.9774   1.0134   1.0240   1.0463
  1.0618   1.0694   1.0783   1.1010   1.1172   1.1695   1.1777   1.1815
  1.1881   1.2224   1.2327   1.2673   1.2867   1.3380   1.3838   1.4568
  1.4681   1.4792   1.5076   1.5178   1.8936   1.9395
 --------------------------------------------------------------

          Ground-State Mulliken Net Atomic Charges

     Atom                 Charge (a.u.)
  ----------------------------------------
      1 C                    -0.159866
      2 C                     0.065958
      3 C                    -0.139181
      4 C                    -0.134750
      5 C                    -0.120329
      6 C                    -0.130030
      7 C                    -0.155817
      8 C                    -0.159106
      9 C                     0.067650
     10 C                    -0.139524
     11 C                    -0.134881
     12 C                    -0.120301
     13 C                    -0.129924
     14 C                    -0.156598
     15 H                     0.122899
     16 H                     0.146309
     17 H                     0.126833
     18 H                     0.125252
     19 H                     0.125757
     20 H                     0.126424
     21 H                     0.122522
     22 H                     0.146581
     23 H                     0.126800
     24 H                     0.125241
     25 H                     0.125738
     26 H                     0.126347
  ----------------------------------------
  Sum of atomic charges =     0.000000

 -----------------------------------------------------------------
                    Cartesian Multipole Moments
 -----------------------------------------------------------------
    Charge (ESU x 10^10)
                -0.0000
    Dipole Moment (Debye)
         X      -0.0014      Y       0.1676      Z       0.0006
       Tot       0.1676
    Quadrupole Moments (Debye-Ang)
        XX     -74.1791     XY      -0.0391     YY     -74.8235
        XZ       4.1500     YZ       0.0221     ZZ     -84.0403
    Octopole Moments (Debye-Ang^2)
       XXX       0.3457    XXY      11.1921    XYY       0.1042
       YYY      -1.3354    XXZ      -0.1541    XYZ     -11.8597
       YYZ      -0.0116    XZZ      -0.2460    YZZ       3.3471
       ZZZ       0.0413
    Hexadecapole Moments (Debye-Ang^3)
      XXXX   -3200.8537   XXXY      -1.6230   XXYY    -651.9354
      XYYY      -0.5514   YYYY    -764.3785   XXXZ     104.5267
      XXYZ       0.0664   XYYZ      -8.8195   YYYZ      -0.4136
      XXZZ    -638.2259   XYZZ      -0.3034   YYZZ    -177.4374
      XZZZ       1.4353   YZZZ      -0.0419   ZZZZ    -269.3005
 -----------------------------------------------------------------
 Calculating analytic gradient of the SCF energy
 Gradient of SCF Energy
            1           2           3           4           5           6
    1   0.0001795   0.0005275   0.0020251  -0.0002297  -0.0003608  -0.0007308
    2   0.0002613  -0.0002417  -0.0004082   0.0010276   0.0006308  -0.0002929
    3   0.0004940  -0.0001069  -0.0006227   0.0003705   0.0003270  -0.0004462
            7           8           9          10          11          12
    1  -0.0003241  -0.0001508  -0.0005790  -0.0019927   0.0001893   0.0003758
    2  -0.0004597   0.0003233  -0.0003199  -0.0003710   0.0010148   0.0006292
    3  -0.0010345  -0.0004987   0.0000634   0.0006623  -0.0003500  -0.0003157
           13          14          15          16          17          18
    1   0.0007393   0.0003426  -0.0006251   0.0014730   0.0002168  -0.0004991
    2  -0.0002888  -0.0004773  -0.0010520   0.0000386   0.0006633   0.0005786
    3   0.0004360   0.0009820   0.0004799   0.0002236   0.0003674   0.0000407
           19          20          21          22          23          24
    1  -0.0007009  -0.0002219   0.0006396  -0.0014959  -0.0002182   0.0004965
    2  -0.0001292  -0.0006301  -0.0010393   0.0000659   0.0006715   0.0005784
    3  -0.0003548  -0.0004154  -0.0004288  -0.0002227  -0.0003615  -0.0000355
           25          26
    1   0.0007027   0.0002213
    2  -0.0001339  -0.0006395
    3   0.0003473   0.0003993
 Max gradient component =       2.025E-03
 RMS gradient           =       6.364E-04
 Gradient time:  CPU 11.69 s  wall 4.14 s
 Geometry Optimization Parameters
   NAtoms,    NIC,     NZ,  NCons,   NDum,   NFix, NCnnct, MaxDiis
       26     181       0       0       0       0       0       0

 Cartesian Hessian Update
 Hessian updated using BFGS update


** GEOMETRY OPTIMIZATION IN DELOCALIZED INTERNAL COORDINATES **
   Searching for a Minimum

   Optimization Cycle:   3

                       Coordinates (Angstroms)
     ATOM                X               Y               Z
      1  C        -0.6750664098   -1.8590696494    0.0015524769
      2  C        -1.6344943714   -0.7361359337    0.0621778020
      3  C        -1.3820377324    0.4467709603    0.7915680434
      4  C        -2.3425127494    1.4609090688    0.8627872276
      5  C        -3.5761475304    1.3179569622    0.2105611421
      6  C        -3.8460738657    0.1454333235   -0.5079400643
      7  C        -2.8884278315   -0.8723355112   -0.5736647562
      8  C         0.6787026616   -1.8566916711   -0.0002206486
      9  C         1.6352170279   -0.7317743762   -0.0623184775
     10  C         1.3745307010    0.4579613742   -0.7777854744
     11  C         2.3333356092    1.4736206470   -0.8487252618
     12  C         3.5737071739    1.3257572919   -0.2104574035
     13  C         3.8521025927    0.1464543040    0.4935157774
     14  C         2.8960299792   -0.8727442741    0.5589639563
     15  H        -1.1516641097   -2.8407315488   -0.0315756027
     16  H        -0.4354612662    0.5614721015    1.3099536516
     17  H        -2.1313935385    2.3608296217    1.4346356707
     18  H        -4.3201849980    2.1076887342    0.2691411083
     19  H        -4.8015791082    0.0212981754   -1.0107280083
     20  H        -3.1061827890   -1.7846492513   -1.1245113542
     21  H         1.1585000763   -2.8367170596    0.0350275600
     22  H         0.4231785729    0.5770170921   -1.2862364441
     23  H         2.1156782424    2.3787529293   -1.4098016178
     24  H         4.3162635962    2.1168950544   -0.2687426968
     25  H         4.8128509191    0.0182123364    0.9851387390
     26  H         3.1202829939   -1.7902922886    1.0984055091
   Point Group: c1    Number of degrees of freedom:    72


   Energy is   -540.582862961

 Hessian updated using BFGS update

 72 Hessian modes will be used to form the next step
  Hessian Eigenvalues:
     0.012590    0.014918    0.019499    0.020783    0.021557    0.021772
     0.022647    0.022755    0.023119    0.023191    0.023245    0.023373
     0.023523    0.023524    0.023537    0.023551    0.023638    0.023641
     0.023725    0.023731    0.023759    0.023761    0.039616    0.159659
     0.159972    0.159985    0.159986    0.159989    0.159990    0.159993
     0.159996    0.159997    0.159997    0.159998    0.160099    0.219962
     0.219978    0.219988    0.219998    0.220006    0.233927    0.234577
     0.244572    0.249505    0.340930    0.352550    0.352876    0.358486
     0.359307    0.360065    0.360454    0.361024    0.361091    0.361178
     0.361309    0.361392    0.361671    0.363315    0.401756    0.422149
     0.424430    0.425016    0.432055    0.453489    0.461042    0.462636
     0.464671    0.471705    0.473032    0.474660    0.475677    0.591866

 Minimum search - taking simple RFO step
 Searching for Lamda that Minimizes Along All modes
 Value Taken    Lamda =  -0.00062437
 Step Taken.  Stepsize is  0.079636

                             Maximum     Tolerance    Cnvgd?
         Gradient           0.011288      0.000300      NO
         Displacement       0.061075      0.001200      NO
         Energy change      0.000041      0.000001      NO


 New Cartesian Coordinates Obtained by Inverse Iteration

 Displacement from previous Coordinates is:  0.535299
 ----------------------------------------------------------------
             Standard Nuclear Orientation (Angstroms)
    I     Atom           X                Y                Z
 ----------------------------------------------------------------
    1      C      -0.6743560356    -1.8336598079    -0.0011817738
    2      C      -1.6432303694    -0.7204450620     0.0686358973
    3      C      -1.4206675031     0.4445702836     0.8324365613
    4      C      -2.3943903063     1.4425877390     0.9124305870
    5      C      -3.6130198231     1.3010090235     0.2361994878
    6      C      -3.8553113139     0.1440288345    -0.5128524592
    7      C      -2.8846392994    -0.8582309679    -0.5863629302
    8      C       0.6780873425    -1.8313718475     0.0011582328
    9      C       1.6441063207    -0.7161026494    -0.0692799305
   10      C       1.4137276903     0.4558832266    -0.8201382951
   11      C       2.3856988689     1.4556107287    -0.8992282717
   12      C       3.6104843053     1.3091630513    -0.2352101362
   13      C       3.8607820680     0.1452729572     0.5003408354
   14      C       2.8918112622    -0.8586346680     0.5728770415
   15      H      -1.1449389276    -2.8161257046    -0.0424872854
   16      H      -0.4876992633     0.5574533179     1.3723754339
   17      H      -2.2058251598     2.3287466796     1.5107791178
   18      H      -4.3677689128     2.0783294242     0.3018064362
   19      H      -4.8000112307     0.0194624900    -1.0330769473
   20      H      -3.0816634795    -1.7592434945    -1.1607991084
   21      H       1.1517118731    -2.8123144349     0.0438040847
   22      H       0.4763954772     0.5730217902    -1.3514067554
   23      H       2.1909294359     2.3471205660    -1.4875599481
   24      H       4.3636618475     2.0880713584    -0.2999943052
   25      H       4.8102881728     0.0166472326     1.0107222135
   26      H       3.0949908064    -1.7649616536     1.1367330717
 ----------------------------------------------------------------
 Molecular Point Group                 C1    NOp =  1
 Largest Abelian Subgroup              C1    NOp =  1
 Nuclear Repulsion Energy =         760.02554940 hartrees
 There are       48 alpha and       48 beta electrons
 Applying Cartesian multipole field
    Component          Value
    ---------          -----
     (2,0,0)        1.00000E-11
     (0,2,0)        2.00000E-11
     (0,0,2)       -3.00000E-10
 Nucleus-field energy     =    -0.0000000070 hartrees
 Requested basis set is 6-31G
 There are 66 shells and 150 basis functions
 A cutoff of  1.0D-11 yielded   1713 shell pairs
 There are      9849 function pairs
 Smallest overlap matrix eigenvalue = 6.42E-04
 Guess MOs from SCF MO coefficient file

 -----------------------------------------------------------------------
  General SCF calculation program by
  Eric Jon Sundstrom, Paul Horn, Yuezhi Mao, Dmitri Zuev, Alec White,
  David Stuck, Shaama M.S., Shane Yost, Joonho Lee, David Small,
  Daniel Levine, Susi Lehtola, Hugh Burton, Evgeny Epifanovsky,
  Bang C. Huynh
 -----------------------------------------------------------------------
 Exchange:     0.2000 Hartree-Fock + 0.0800 Slater + 0.7200 B88
 Correlation:  0.1900 VWN1RPA + 0.8100 LYP
 Using SG-1 standard quadrature grid
 using 6 threads for integral computing
 -------------------------------------------------------
 OpenMP Integral computing Module                
 Release: version 1.0, May 2013, Q-Chem Inc. Pittsburgh 
 -------------------------------------------------------
 A restricted SCF calculation will be
 performed using DIIS
 SCF converges when DIIS error is below 1.0e-08
 ---------------------------------------
  Cycle       Energy         DIIS error
 ---------------------------------------
    1    -540.5796557840      6.86e-04  
    2    -540.5830741776      8.01e-05  
    3    -540.5831186158      5.58e-05  
    4    -540.5831270829      2.52e-05  
    5    -540.5831291392      8.53e-06  
    6    -540.5831293832      2.21e-06  
    7    -540.5831293972      8.18e-07  
    8    -540.5831293996      2.60e-07  
    9    -540.5831294000      4.63e-08  
   10    -540.5831293995      1.39e-08  
   11    -540.5831293998      3.82e-09  Convergence criterion met
 ---------------------------------------
 SCF time:   CPU 40.49s  wall 14.00s 
 SCF   energy in the final basis set =     -540.5831293998
 Total energy in the final basis set =     -540.5831293998

 --------------------------------------------------------------

                    Orbital Energies (a.u.)
 --------------------------------------------------------------

 Alpha MOs
 -- Occupied --
-10.1967 -10.1967 -10.1899 -10.1892 -10.1864 -10.1863 -10.1859 -10.1858
-10.1854 -10.1854 -10.1854 -10.1853 -10.1836 -10.1836  -0.8617  -0.8545
 -0.7976  -0.7576  -0.7463  -0.7439  -0.7154  -0.6335  -0.6085  -0.6012
 -0.5957  -0.5531  -0.5222  -0.4949  -0.4772  -0.4636  -0.4526  -0.4431
 -0.4305  -0.4214  -0.4211  -0.4141  -0.3851  -0.3686  -0.3659  -0.3505
 -0.3436  -0.3373  -0.3313  -0.2978  -0.2569  -0.2516  -0.2467  -0.2096
 -- Virtual --
 -0.0412  -0.0025   0.0090   0.0125   0.0650   0.0956   0.1020   0.1143
  0.1400   0.1491   0.1610   0.1614   0.1631   0.1743   0.1769   0.1896
  0.1904   0.2025   0.2114   0.2479   0.2810   0.3058   0.3067   0.3132
  0.3187   0.3292   0.3334   0.3472   0.4100   0.4341   0.4592   0.4982
  0.5152   0.5315   0.5389   0.5493   0.5572   0.5681   0.5824   0.5834
  0.5910   0.5923   0.6049   0.6093   0.6199   0.6239   0.6242   0.6243
  0.6469   0.6485   0.6551   0.6559   0.6572   0.6593   0.6720   0.6773
  0.6967   0.7051   0.7342   0.7483   0.7852   0.8035   0.8452   0.8454
  0.8566   0.8626   0.8641   0.8754   0.8761   0.8977   0.9101   0.9189
  0.9246   0.9454   0.9599   0.9741   0.9784   1.0093   1.0221   1.0472
  1.0526   1.0682   1.0770   1.1043   1.1191   1.1690   1.1790   1.1819
  1.1904   1.2203   1.2311   1.2644   1.2856   1.3305   1.3601   1.4537
  1.4637   1.4805   1.5076   1.5097   1.8977   1.9382
 --------------------------------------------------------------

          Ground-State Mulliken Net Atomic Charges

     Atom                 Charge (a.u.)
  ----------------------------------------
      1 C                    -0.161375
      2 C                     0.067107
      3 C                    -0.135973
      4 C                    -0.134155
      5 C                    -0.120100
      6 C                    -0.129524
      7 C                    -0.156218
      8 C                    -0.160622
      9 C                     0.068593
     10 C                    -0.136282
     11 C                    -0.134247
     12 C                    -0.120071
     13 C                    -0.129433
     14 C                    -0.156910
     15 H                     0.122784
     16 H                     0.143538
     17 H                     0.126597
     18 H                     0.125089
     19 H                     0.125495
     20 H                     0.126226
     21 H                     0.122437
     22 H                     0.143734
     23 H                     0.126575
     24 H                     0.125085
     25 H                     0.125483
     26 H                     0.126167
  ----------------------------------------
  Sum of atomic charges =     0.000000

 -----------------------------------------------------------------
                    Cartesian Multipole Moments
 -----------------------------------------------------------------
    Charge (ESU x 10^10)
                -0.0000
    Dipole Moment (Debye)
         X      -0.0009      Y       0.1539      Z       0.0006
       Tot       0.1539
    Quadrupole Moments (Debye-Ang)
        XX     -74.2059     XY      -0.0362     YY     -75.1039
        XZ       4.0937     YZ       0.0192     ZZ     -83.5719
    Octopole Moments (Debye-Ang^2)
       XXX       0.3030    XXY      12.1412    XYY       0.1140
       YYY      -2.1007    XXZ      -0.1086    XYZ     -12.5555
       YYZ      -0.0209    XZZ      -0.2350    YZZ       3.5798
       ZZZ       0.0480
    Hexadecapole Moments (Debye-Ang^3)
      XXXX   -3249.1849   XXXY      -1.6944   XXYY    -658.0567
      XYYY      -0.6393   YYYY    -748.7006   XXXZ     115.2200
      XXYZ       0.0810   XYYZ      -6.4034   YYYZ      -0.4054
      XXZZ    -646.3508   XYZZ      -0.3606   YYZZ    -175.3943
      XZZZ      12.6669   YZZZ      -0.0283   ZZZZ    -284.5997
 -----------------------------------------------------------------
 Calculating analytic gradient of the SCF energy
 Gradient of SCF Energy
            1           2           3           4           5           6
    1   0.0004319  -0.0002631  -0.0001588  -0.0000981   0.0001376   0.0000953
    2  -0.0001269   0.0004405  -0.0002052  -0.0000724  -0.0000969   0.0000499
    3   0.0001589  -0.0001031   0.0000606  -0.0000576   0.0000093   0.0000910
            7           8           9          10          11          12
    1   0.0002308  -0.0003927   0.0001947   0.0001430   0.0000754  -0.0001221
    2   0.0000212  -0.0000630   0.0003889  -0.0001438  -0.0000863  -0.0001023
    3   0.0000596  -0.0001633   0.0000522  -0.0000221   0.0000567   0.0000016
           13          14          15          16          17          18
    1  -0.0000964  -0.0002105   0.0000318  -0.0000991   0.0000001   0.0000326
    2   0.0000518   0.0000053   0.0000294  -0.0000266  -0.0000494  -0.0000329
    3  -0.0000874  -0.0000876   0.0001133  -0.0000271  -0.0000237   0.0000046
           19          20          21          22          23          24
    1   0.0000503  -0.0000192  -0.0000283   0.0001302  -0.0000001  -0.0000355
    2  -0.0000023   0.0000492   0.0000363  -0.0000223  -0.0000472  -0.0000310
    3   0.0000386   0.0000283  -0.0000709   0.0000122   0.0000268   0.0000003
           25          26
    1  -0.0000512   0.0000214
    2  -0.0000071   0.0000431
    3  -0.0000378  -0.0000335
 Max gradient component =       4.405E-04
 RMS gradient           =       1.293E-04
 Gradient time:  CPU 11.61 s  wall 3.92 s
 Geometry Optimization Parameters
   NAtoms,    NIC,     NZ,  NCons,   NDum,   NFix, NCnnct, MaxDiis
       26     181       0       0       0       0       0       0

 Cartesian Hessian Update
 Hessian updated using BFGS update


** GEOMETRY OPTIMIZATION IN DELOCALIZED INTERNAL COORDINATES **
   Searching for a Minimum

   Optimization Cycle:   4

                       Coordinates (Angstroms)
     ATOM                X               Y               Z
      1  C        -0.6743560356   -1.8336598079   -0.0011817738
      2  C        -1.6432303694   -0.7204450620    0.0686358973
      3  C        -1.4206675031    0.4445702836    0.8324365613
      4  C        -2.3943903063    1.4425877390    0.9124305870
      5  C        -3.6130198231    1.3010090235    0.2361994878
      6  C        -3.8553113139    0.1440288345   -0.5128524592
      7  C        -2.8846392994   -0.8582309679   -0.5863629302
      8  C         0.6780873425   -1.8313718475    0.0011582328
      9  C         1.6441063207   -0.7161026494   -0.0692799305
     10  C         1.4137276903    0.4558832266   -0.8201382951
     11  C         2.3856988689    1.4556107287   -0.8992282717
     12  C         3.6104843053    1.3091630513   -0.2352101362
     13  C         3.8607820680    0.1452729572    0.5003408354
     14  C         2.8918112622   -0.8586346680    0.5728770415
     15  H        -1.1449389276   -2.8161257046   -0.0424872854
     16  H        -0.4876992633    0.5574533179    1.3723754339
     17  H        -2.2058251598    2.3287466796    1.5107791178
     18  H        -4.3677689128    2.0783294242    0.3018064362
     19  H        -4.8000112307    0.0194624900   -1.0330769473
     20  H        -3.0816634795   -1.7592434945   -1.1607991084
     21  H         1.1517118731   -2.8123144349    0.0438040847
     22  H         0.4763954772    0.5730217902   -1.3514067554
     23  H         2.1909294359    2.3471205660   -1.4875599481
     24  H         4.3636618475    2.0880713584   -0.2999943052
     25  H         4.8102881728    0.0166472326    1.0107222135
     26  H         3.0949908064   -1.7649616536    1.1367330717
   Point Group: c1    Number of degrees of freedom:    72


   Energy is   -540.583129400

 Hessian updated using BFGS update

 72 Hessian modes will be used to form the next step
  Hessian Eigenvalues:
     0.012588    0.015354    0.019499    0.020975    0.021557    0.021835
     0.022647    0.022788    0.023119    0.023197    0.023245    0.023439
     0.023523    0.023524    0.023537    0.023564    0.023638    0.023641
     0.023725    0.023731    0.023759    0.023760    0.040622    0.159658
     0.159970    0.159986    0.159988    0.159989    0.159990    0.159993
     0.159996    0.159997    0.159998    0.160007    0.160081    0.219954
     0.219978    0.219991    0.219998    0.220005    0.234047    0.234576
     0.244440    0.249492    0.339950    0.352488    0.353206    0.358487
     0.359410    0.360065    0.360483    0.361024    0.361090    0.361178
     0.361307    0.361392    0.361660    0.363313    0.407893    0.422149
     0.424139    0.425016    0.429877    0.460588    0.461049    0.464643
     0.465574    0.471703    0.473031    0.475658    0.476286    0.587359

 Minimum search - taking simple RFO step
 Searching for Lamda that Minimizes Along All modes
 Value Taken    Lamda =  -0.00001043
 Step Taken.  Stepsize is  0.020417

                             Maximum     Tolerance    Cnvgd?
         Gradient           0.000505      0.000300      NO
         Displacement       0.009822      0.001200      NO
         Energy change     -0.000266      0.000001      NO


 New Cartesian Coordinates Obtained by Inverse Iteration

 Displacement from previous Coordinates is:  0.081304
 ----------------------------------------------------------------
             Standard Nuclear Orientation (Angstroms)
    I     Atom           X                Y                Z
 ----------------------------------------------------------------
    1      C      -0.6745952290    -1.8333258900    -0.0032749871
    2      C      -1.6440067547    -0.7206946267     0.0665770850
    3      C      -1.4187993135     0.4485208943     0.8238262811
    4      C      -2.3930323531     1.4462333886     0.9036576478
    5      C      -3.6149409656     1.3006216872     0.2337385993
    6      C      -3.8598112616     0.1399500550    -0.5090325235
    7      C      -2.8886300842    -0.8620614034    -0.5822944823
    8      C       0.6783317564    -1.8311651343     0.0009748456
    9      C       1.6449773571    -0.7163617413    -0.0679796489
   10      C       1.4131364620     0.4591550759    -0.8134751821
   11      C       2.3855637458     1.4587378451    -0.8913631998
   12      C       3.6123925309     1.3089970682    -0.2313939284
   13      C       3.8640639945     0.1420811179     0.4991995890
   14      C       2.8946341112    -0.8617097253     0.5704925469
   15      H      -1.1450450216    -2.8158398487    -0.0463136248
   16      H      -0.4833295116     0.5648994359     1.3588630955
   17      H      -2.2024131284     2.3353775518     1.4970582190
   18      H      -4.3700152317     2.0777245045     0.2993362608
   19      H      -4.8068371151     0.0124066888    -1.0244612579
   20      H      -3.0874629932    -1.7658796208    -1.1518151177
   21      H       1.1516891991    -2.8122993206     0.0436631447
   22      H       0.4740981045     0.5792116501    -1.3413100978
   23      H       2.1896504642     2.3527580464    -1.4756452218
   24      H       4.3659002648     2.0877513492    -0.2953788227
   25      H       4.8149443528     0.0111211283     1.0065998975
   26      H       3.0986904663    -1.7703217631     1.1304717371
 ----------------------------------------------------------------
 Molecular Point Group                 C1    NOp =  1
 Largest Abelian Subgroup              C1    NOp =  1
 Nuclear Repulsion Energy =         759.94933800 hartrees
 There are       48 alpha and       48 beta electrons
 Applying Cartesian multipole field
    Component          Value
    ---------          -----
     (2,0,0)        1.00000E-11
     (0,2,0)        2.00000E-11
     (0,0,2)       -3.00000E-10
 Nucleus-field energy     =    -0.0000000063 hartrees
 Requested basis set is 6-31G
 There are 66 shells and 150 basis functions
 A cutoff of  1.0D-11 yielded   1713 shell pairs
 There are      9849 function pairs
 Smallest overlap matrix eigenvalue = 6.43E-04
 Guess MOs from SCF MO coefficient file

 -----------------------------------------------------------------------
  General SCF calculation program by
  Eric Jon Sundstrom, Paul Horn, Yuezhi Mao, Dmitri Zuev, Alec White,
  David Stuck, Shaama M.S., Shane Yost, Joonho Lee, David Small,
  Daniel Levine, Susi Lehtola, Hugh Burton, Evgeny Epifanovsky,
  Bang C. Huynh
 -----------------------------------------------------------------------
 Exchange:     0.2000 Hartree-Fock + 0.0800 Slater + 0.7200 B88
 Correlation:  0.1900 VWN1RPA + 0.8100 LYP
 Using SG-1 standard quadrature grid
 using 6 threads for integral computing
 -------------------------------------------------------
 OpenMP Integral computing Module                
 Release: version 1.0, May 2013, Q-Chem Inc. Pittsburgh 
 -------------------------------------------------------
 A restricted SCF calculation will be
 performed using DIIS
 SCF converges when DIIS error is below 1.0e-08
 ---------------------------------------
  Cycle       Energy         DIIS error
 ---------------------------------------
    1    -540.5830301514      1.17e-04  
    2    -540.5831349528      1.36e-05  
    3    -540.5831365781      5.79e-06  
    4    -540.5831366330      4.36e-06  
    5    -540.5831366955      1.12e-06  
    6    -540.5831367004      2.63e-07  
    7    -540.5831367003      1.66e-07  
    8    -540.5831366999      1.94e-08  
    9    -540.5831366998      1.08e-08  
   10    -540.5831367003      2.35e-09  Convergence criterion met
 ---------------------------------------
 SCF time:   CPU 36.13s  wall 12.00s 
 SCF   energy in the final basis set =     -540.5831367003
 Total energy in the final basis set =     -540.5831367003

 --------------------------------------------------------------

                    Orbital Energies (a.u.)
 --------------------------------------------------------------

 Alpha MOs
 -- Occupied --
-10.1968 -10.1968 -10.1900 -10.1893 -10.1865 -10.1864 -10.1859 -10.1859
-10.1855 -10.1855 -10.1855 -10.1854 -10.1837 -10.1836  -0.8616  -0.8544
 -0.7976  -0.7576  -0.7463  -0.7439  -0.7153  -0.6335  -0.6085  -0.6012
 -0.5957  -0.5531  -0.5222  -0.4949  -0.4772  -0.4637  -0.4526  -0.4430
 -0.4304  -0.4214  -0.4211  -0.4140  -0.3851  -0.3687  -0.3660  -0.3506
 -0.3435  -0.3373  -0.3314  -0.2979  -0.2570  -0.2517  -0.2467  -0.2094
 -- Virtual --
 -0.0415  -0.0026   0.0089   0.0126   0.0653   0.0956   0.1019   0.1143
  0.1399   0.1492   0.1610   0.1614   0.1632   0.1741   0.1768   0.1896
  0.1904   0.2025   0.2115   0.2477   0.2809   0.3055   0.3063   0.3130
  0.3187   0.3290   0.3336   0.3470   0.4099   0.4342   0.4591   0.4984
  0.5154   0.5314   0.5392   0.5491   0.5572   0.5685   0.5825   0.5834
  0.5906   0.5922   0.6049   0.6095   0.6200   0.6236   0.6241   0.6242
  0.6468   0.6485   0.6550   0.6558   0.6573   0.6593   0.6720   0.6772
  0.6966   0.7051   0.7342   0.7484   0.7841   0.8041   0.8451   0.8454
  0.8565   0.8627   0.8640   0.8753   0.8764   0.8977   0.9104   0.9190
  0.9249   0.9455   0.9601   0.9741   0.9784   1.0100   1.0224   1.0471
  1.0535   1.0681   1.0774   1.1040   1.1185   1.1693   1.1786   1.1819
  1.1900   1.2204   1.2309   1.2652   1.2859   1.3320   1.3628   1.4543
  1.4643   1.4804   1.5070   1.5114   1.8968   1.9385
 --------------------------------------------------------------

          Ground-State Mulliken Net Atomic Charges

     Atom                 Charge (a.u.)
  ----------------------------------------
      1 C                    -0.161333
      2 C                     0.067910
      3 C                    -0.136584
      4 C                    -0.134202
      5 C                    -0.120125
      6 C                    -0.129473
      7 C                    -0.156553
      8 C                    -0.160756
      9 C                     0.069083
     10 C                    -0.136829
     11 C                    -0.134273
     12 C                    -0.120103
     13 C                    -0.129398
     14 C                    -0.157104
     15 H                     0.122641
     16 H                     0.143809
     17 H                     0.126620
     18 H                     0.125125
     19 H                     0.125548
     20 H                     0.126225
     21 H                     0.122367
     22 H                     0.143965
     23 H                     0.126602
     24 H                     0.125122
     25 H                     0.125537
     26 H                     0.126176
  ----------------------------------------
  Sum of atomic charges =     0.000000

 -----------------------------------------------------------------
                    Cartesian Multipole Moments
 -----------------------------------------------------------------
    Charge (ESU x 10^10)
                -0.0000
    Dipole Moment (Debye)
         X      -0.0008      Y       0.1563      Z       0.0005
       Tot       0.1563
    Quadrupole Moments (Debye-Ang)
        XX     -74.1599     XY      -0.0309     YY     -75.0662
        XZ       4.0828     YZ       0.0224     ZZ     -83.6551
    Octopole Moments (Debye-Ang^2)
       XXX       0.2324    XXY      11.9908    XYY       0.1112
       YYY      -2.0379    XXZ      -0.0763    XYZ     -12.5274
       YYZ      -0.0279    XZZ      -0.2029    YZZ       3.5294
       ZZZ       0.0475
    Hexadecapole Moments (Debye-Ang^3)
      XXXX   -3251.2422   XXXY      -1.7105   XXYY    -658.8145
      XYYY      -0.7838   YYYY    -749.8627   XXXZ     113.9709
      XXYZ       0.0863   XYYZ      -6.6175   YYYZ      -0.4678
      XXZZ    -647.1739   XYZZ      -0.4100   YYZZ    -175.3194
      XZZZ      11.4919   YZZZ      -0.1823   ZZZZ    -281.7074
 -----------------------------------------------------------------
 Calculating analytic gradient of the SCF energy
 Gradient of SCF Energy
            1           2           3           4           5           6
    1   0.0001528  -0.0001421   0.0000193  -0.0000478   0.0000278  -0.0000112
    2  -0.0001419   0.0001793  -0.0000991   0.0000348  -0.0000083   0.0000289
    3   0.0001340  -0.0000721   0.0000588  -0.0000039   0.0000184   0.0000107
            7           8           9          10          11          12
    1   0.0000758  -0.0001273   0.0000804  -0.0000175   0.0000355  -0.0000180
    2  -0.0000068  -0.0000847   0.0001423  -0.0000628   0.0000244  -0.0000070
    3  -0.0000303  -0.0001292   0.0000205  -0.0000301   0.0000066  -0.0000135
           13          14          15          16          17          18
    1   0.0000115  -0.0000543  -0.0000090   0.0000016   0.0000056  -0.0000060
    2   0.0000261  -0.0000157  -0.0000031  -0.0000156  -0.0000007   0.0000007
    3  -0.0000070   0.0000120   0.0000810  -0.0000020   0.0000057   0.0000117
           19          20          21          22          23          24
    1  -0.0000081  -0.0000082   0.0000130   0.0000124  -0.0000058   0.0000040
    2   0.0000013   0.0000085   0.0000011  -0.0000084   0.0000023   0.0000025
    3   0.0000091   0.0000052  -0.0000522  -0.0000037  -0.0000015  -0.0000070
           25          26
    1   0.0000077   0.0000083
    2  -0.0000015   0.0000032
    3  -0.0000104  -0.0000110
 Max gradient component =       1.793E-04
 RMS gradient           =       5.491E-05
 Gradient time:  CPU 11.61 s  wall 3.91 s
 Geometry Optimization Parameters
   NAtoms,    NIC,     NZ,  NCons,   NDum,   NFix, NCnnct, MaxDiis
       26     181       0       0       0       0       0       0

 Cartesian Hessian Update
 Hessian updated using BFGS update


** GEOMETRY OPTIMIZATION IN DELOCALIZED INTERNAL COORDINATES **
   Searching for a Minimum

   Optimization Cycle:   5

                       Coordinates (Angstroms)
     ATOM                X               Y               Z
      1  C        -0.6745952290   -1.8333258900   -0.0032749871
      2  C        -1.6440067547   -0.7206946267    0.0665770850
      3  C        -1.4187993135    0.4485208943    0.8238262811
      4  C        -2.3930323531    1.4462333886    0.9036576478
      5  C        -3.6149409656    1.3006216872    0.2337385993
      6  C        -3.8598112616    0.1399500550   -0.5090325235
      7  C        -2.8886300842   -0.8620614034   -0.5822944823
      8  C         0.6783317564   -1.8311651343    0.0009748456
      9  C         1.6449773571   -0.7163617413   -0.0679796489
     10  C         1.4131364620    0.4591550759   -0.8134751821
     11  C         2.3855637458    1.4587378451   -0.8913631998
     12  C         3.6123925309    1.3089970682   -0.2313939284
     13  C         3.8640639945    0.1420811179    0.4991995890
     14  C         2.8946341112   -0.8617097253    0.5704925469
     15  H        -1.1450450216   -2.8158398487   -0.0463136248
     16  H        -0.4833295116    0.5648994359    1.3588630955
     17  H        -2.2024131284    2.3353775518    1.4970582190
     18  H        -4.3700152317    2.0777245045    0.2993362608
     19  H        -4.8068371151    0.0124066888   -1.0244612579
     20  H        -3.0874629932   -1.7658796208   -1.1518151177
     21  H         1.1516891991   -2.8122993206    0.0436631447
     22  H         0.4740981045    0.5792116501   -1.3413100978
     23  H         2.1896504642    2.3527580464   -1.4756452218
     24  H         4.3659002648    2.0877513492   -0.2953788227
     25  H         4.8149443528    0.0111211283    1.0065998975
     26  H         3.0986904663   -1.7703217631    1.1304717371
   Point Group: c1    Number of degrees of freedom:    72


   Energy is   -540.583136700

 Hessian updated using BFGS update

 72 Hessian modes will be used to form the next step
  Hessian Eigenvalues:
     0.007826    0.012876    0.019497    0.020653    0.021560    0.021924
     0.022626    0.022696    0.023119    0.023177    0.023244    0.023382
     0.023523    0.023530    0.023537    0.023548    0.023639    0.023656
     0.023725    0.023731    0.023759    0.023762    0.039828    0.159581
     0.159921    0.159986    0.159988    0.159988    0.159990    0.159993
     0.159996    0.159996    0.159998    0.160034    0.160363    0.219775
     0.219979    0.219984    0.219999    0.220054    0.234307    0.234681
     0.244654    0.248941    0.340518    0.352438    0.356196    0.358490
     0.359787    0.360065    0.360906    0.361024    0.361100    0.361178
     0.361307    0.361392    0.361659    0.363311    0.417450    0.422130
     0.424108    0.425016    0.430542    0.461035    0.461644    0.464655
     0.469234    0.471702    0.473034    0.475670    0.545385    0.586624

 Minimum search - taking simple RFO step
 Searching for Lamda that Minimizes Along All modes
 Value Taken    Lamda =  -0.00000558
 Step Taken.  Stepsize is  0.025986

                             Maximum     Tolerance    Cnvgd?
         Gradient           0.000126      0.000300     YES
         Displacement       0.013368      0.001200      NO
         Energy change     -0.000007      0.000001      NO


 New Cartesian Coordinates Obtained by Inverse Iteration

 Displacement from previous Coordinates is:  0.103850
 ----------------------------------------------------------------
             Standard Nuclear Orientation (Angstroms)
    I     Atom           X                Y                Z
 ----------------------------------------------------------------
    1      C      -0.6746916267    -1.8300407294    -0.0070060475
    2      C      -1.6454082554    -0.7191004389     0.0633697096
    3      C      -1.4187925696     0.4547388770     0.8133810774
    4      C      -2.3951470936     1.4502208994     0.8941148634
    5      C      -3.6207861867     1.2981910145     0.2322910101
    6      C      -3.8671429430     0.1331160944    -0.5030950142
    7      C      -2.8938187972    -0.8667282386    -0.5771285705
    8      C       0.6784812510    -1.8281284051     0.0005826996
    9      C       1.6465707928    -0.7148252859    -0.0662118614
   10      C       1.4153214331     0.4642428998    -0.8065733338
   11      C       2.3897542305     1.4618966954    -0.8834404108
   12      C       3.6181493033     1.3069933982    -0.2274211401
   13      C       3.8692487566     0.1367559424     0.4981026231
   14      C       2.8978226584    -0.8651695344     0.5682510267
   15      H      -1.1444158697    -2.8127790050    -0.0528306069
   16      H      -0.4805490406     0.5764465350     1.3423729795
   17      H      -2.2033383919     2.3427943469     1.4820000378
   18      H      -4.3774248811     2.0737222043     0.2985857662
   19      H      -4.8169325988     0.0005209245    -1.0121433148
   20      H      -3.0937323001    -1.7740381133    -1.1407520145
   21      H       1.1508642663    -2.8097288496     0.0435149614
   22      H       0.4750458642     0.5885356687    -1.3313008818
   23      H       2.1942685437     2.3585255926    -1.4638962530
   24      H       4.3732098172     2.0843183711    -0.2906388489
   25      H       4.8212219037     0.0018296647     1.0024288028
   26      H       3.1013755799    -1.7764221156     1.1241635951
 ----------------------------------------------------------------
 Molecular Point Group                 C1    NOp =  1
 Largest Abelian Subgroup              C1    NOp =  1
 Nuclear Repulsion Energy =         759.81452751 hartrees
 There are       48 alpha and       48 beta electrons
 Applying Cartesian multipole field
    Component          Value
    ---------          -----
     (2,0,0)        1.00000E-11
     (0,2,0)        2.00000E-11
     (0,0,2)       -3.00000E-10
 Nucleus-field energy     =    -0.0000000054 hartrees
 Requested basis set is 6-31G
 There are 66 shells and 150 basis functions
 A cutoff of  1.0D-11 yielded   1713 shell pairs
 There are      9849 function pairs
 Smallest overlap matrix eigenvalue = 6.43E-04
 Guess MOs from SCF MO coefficient file

 -----------------------------------------------------------------------
  General SCF calculation program by
  Eric Jon Sundstrom, Paul Horn, Yuezhi Mao, Dmitri Zuev, Alec White,
  David Stuck, Shaama M.S., Shane Yost, Joonho Lee, David Small,
  Daniel Levine, Susi Lehtola, Hugh Burton, Evgeny Epifanovsky,
  Bang C. Huynh
 -----------------------------------------------------------------------
 Exchange:     0.2000 Hartree-Fock + 0.0800 Slater + 0.7200 B88
 Correlation:  0.1900 VWN1RPA + 0.8100 LYP
 Using SG-1 standard quadrature grid
 using 6 threads for integral computing
 -------------------------------------------------------
 OpenMP Integral computing Module                
 Release: version 1.0, May 2013, Q-Chem Inc. Pittsburgh 
 -------------------------------------------------------
 A restricted SCF calculation will be
 performed using DIIS
 SCF converges when DIIS error is below 1.0e-08
 ---------------------------------------
  Cycle       Energy         DIIS error
 ---------------------------------------
    1    -540.5829842494      1.44e-04  
    2    -540.5831376476      1.59e-05  
    3    -540.5831399363      6.40e-06  
    4    -540.5831399616      6.03e-06  
    5    -540.5831400887      6.75e-07  
    6    -540.5831400900      4.11e-07  
    7    -540.5831400903      1.12e-07  
    8    -540.5831400902      2.52e-08  
    9    -540.5831400892      7.99e-09  Convergence criterion met
 ---------------------------------------
 SCF time:   CPU 32.97s  wall 11.00s 
 SCF   energy in the final basis set =     -540.5831400892
 Total energy in the final basis set =     -540.5831400892

 --------------------------------------------------------------

                    Orbital Energies (a.u.)
 --------------------------------------------------------------

 Alpha MOs
 -- Occupied --
[...]
 Largest Abelian Subgroup              C1    NOp =  1
 Nuclear Repulsion Energy =         759.69475420 hartrees
 There are       48 alpha and       48 beta electrons
 Applying Cartesian multipole field
    Component          Value
    ---------          -----
     (2,0,0)        1.00000E-11
     (0,2,0)        2.00000E-11
     (0,0,2)       -3.00000E-10
 Nucleus-field energy     =    -0.0000000052 hartrees
 Requested basis set is 6-31G
 There are 66 shells and 150 basis functions
 A cutoff of  1.0D-11 yielded   1711 shell pairs
 There are      9847 function pairs
 Smallest overlap matrix eigenvalue = 6.42E-04
 Guess MOs from SCF MO coefficient file

 -----------------------------------------------------------------------
  General SCF calculation program by
  Eric Jon Sundstrom, Paul Horn, Yuezhi Mao, Dmitri Zuev, Alec White,
  David Stuck, Shaama M.S., Shane Yost, Joonho Lee, David Small,
  Daniel Levine, Susi Lehtola, Hugh Burton, Evgeny Epifanovsky,
  Bang C. Huynh
 -----------------------------------------------------------------------
 Exchange:     0.2000 Hartree-Fock + 0.0800 Slater + 0.7200 B88
 Correlation:  0.1900 VWN1RPA + 0.8100 LYP
 Using SG-1 standard quadrature grid
 using 6 threads for integral computing
 -------------------------------------------------------
 OpenMP Integral computing Module                
 Release: version 1.0, May 2013, Q-Chem Inc. Pittsburgh 
 -------------------------------------------------------
 A restricted SCF calculation will be
 performed using DIIS
 SCF converges when DIIS error is below 1.0e-08
 ---------------------------------------
  Cycle       Energy         DIIS error
 ---------------------------------------
    1    -540.5831165309      5.84e-05  
    2    -540.5831403817      6.10e-06  
    3    -540.5831407139      2.19e-06  
    4    -540.5831407164      2.12e-06  
    5    -540.5831407312      3.93e-07  
    6    -540.5831407316      1.54e-07  
    7    -540.5831407324      3.94e-08  
    8    -540.5831407330      1.15e-08  
    9    -540.5831407331      4.69e-09  Convergence criterion met
 ---------------------------------------
 SCF time:   CPU 32.46s  wall 11.00s 
 SCF   energy in the final basis set =     -540.5831407331
 Total energy in the final basis set =     -540.5831407331

 --------------------------------------------------------------

                    Orbital Energies (a.u.)
 --------------------------------------------------------------

 Alpha MOs
 -- Occupied --
-10.1969 -10.1969 -10.1900 -10.1893 -10.1865 -10.1865 -10.1860 -10.1860
-10.1856 -10.1856 -10.1855 -10.1855 -10.1837 -10.1837  -0.8617  -0.8544
 -0.7976  -0.7577  -0.7464  -0.7439  -0.7153  -0.6336  -0.6087  -0.6011
 -0.5958  -0.5531  -0.5223  -0.4948  -0.4773  -0.4639  -0.4527  -0.4429
 -0.4304  -0.4215  -0.4211  -0.4138  -0.3850  -0.3689  -0.3661  -0.3507
 -0.3435  -0.3372  -0.3315  -0.2983  -0.2571  -0.2518  -0.2468  -0.2091
 -- Virtual --
 -0.0420  -0.0026   0.0088   0.0128   0.0658   0.0954   0.1019   0.1141
  0.1399   0.1493   0.1610   0.1612   0.1634   0.1741   0.1767   0.1896
  0.1906   0.2024   0.2120   0.2478   0.2810   0.3052   0.3060   0.3128
  0.3189   0.3291   0.3341   0.3468   0.4100   0.4347   0.4588   0.4990
  0.5159   0.5314   0.5395   0.5489   0.5574   0.5689   0.5830   0.5836
  0.5902   0.5923   0.6049   0.6096   0.6201   0.6232   0.6242   0.6242
  0.6466   0.6484   0.6548   0.6559   0.6574   0.6594   0.6722   0.6773
  0.6968   0.7051   0.7345   0.7488   0.7821   0.8047   0.8451   0.8455
  0.8566   0.8629   0.8637   0.8750   0.8769   0.8976   0.9111   0.9190
  0.9256   0.9457   0.9606   0.9743   0.9785   1.0106   1.0229   1.0471
  1.0544   1.0678   1.0785   1.1041   1.1176   1.1699   1.1780   1.1823
  1.1897   1.2206   1.2304   1.2665   1.2864   1.3346   1.3648   1.4551
  1.4657   1.4807   1.5057   1.5148   1.8959   1.9390
 --------------------------------------------------------------

          Ground-State Mulliken Net Atomic Charges

     Atom                 Charge (a.u.)
  ----------------------------------------
      1 C                    -0.161493
      2 C                     0.069811
      3 C                    -0.137391
      4 C                    -0.134288
      5 C                    -0.120094
      6 C                    -0.129391
      7 C                    -0.157246
      8 C                    -0.161362
      9 C                     0.070135
     10 C                    -0.137465
     11 C                    -0.134303
     12 C                    -0.120089
     13 C                    -0.129364
     14 C                    -0.157404
     15 H                     0.122301
     16 H                     0.144080
     17 H                     0.126635
     18 H                     0.125163
     19 H                     0.125590
     20 H                     0.126233
     21 H                     0.122222
     22 H                     0.144116
     23 H                     0.126631
     24 H                     0.125164
     25 H                     0.125588
     26 H                     0.126222
  ----------------------------------------
  Sum of atomic charges =     0.000000

 -----------------------------------------------------------------
                    Cartesian Multipole Moments
 -----------------------------------------------------------------
    Charge (ESU x 10^10)
                -0.0000
    Dipole Moment (Debye)
         X      -0.0002      Y       0.1580      Z       0.0006
       Tot       0.1580
    Quadrupole Moments (Debye-Ang)
        XX     -74.0644     XY      -0.0158     YY     -75.0269
        XZ       4.0414     YZ       0.0288     ZZ     -83.7659
    Octopole Moments (Debye-Ang^2)
       XXX       0.0306    XXY      11.7481    XYY       0.1067
       YYY      -2.0467    XXZ       0.0319    XYZ     -12.5626
       YYZ      -0.0430    XZZ      -0.1103    YZZ       3.4367
       ZZZ       0.0476
    Hexadecapole Moments (Debye-Ang^3)
      XXXX   -3262.3999   XXXY      -1.7442   XXYY    -661.2534
      XYYY      -1.1723   YYYY    -749.6722   XXXZ     112.6399
      XXYZ       0.1019   XYYZ      -6.7193   YYYZ      -0.6525
      XXZZ    -650.1034   XYZZ      -0.5496   YYZZ    -174.7627
      XZZZ      10.5862   YZZZ      -0.6050   ZZZZ    -277.5178
 -----------------------------------------------------------------
 Calculating analytic gradient of the SCF energy
 Gradient of SCF Energy
            1           2           3           4           5           6
    1  -0.0000282  -0.0000135   0.0000282   0.0000138  -0.0000167  -0.0000127
    2  -0.0000231  -0.0000276   0.0000146   0.0000093   0.0000056   0.0000051
    3   0.0000144  -0.0000259   0.0000185   0.0000122   0.0000058   0.0000034
            7           8           9          10          11          12
    1  -0.0000040   0.0000340  -0.0000149  -0.0000240  -0.0000139   0.0000167
    2   0.0000055   0.0000036  -0.0000357   0.0000222   0.0000076   0.0000102
    3  -0.0000076  -0.0000127  -0.0000008  -0.0000063  -0.0000087  -0.0000069
           13          14          15          16          17          18
    1   0.0000110   0.0000200  -0.0000003   0.0000211   0.0000031  -0.0000046
    2  -0.0000033   0.0000030  -0.0000045  -0.0000019   0.0000060   0.0000038
    3   0.0000007   0.0000022   0.0000096   0.0000006   0.0000091   0.0000113
           19          20          21          22          23          24
    1  -0.0000097  -0.0000001   0.0000037  -0.0000185  -0.0000034   0.0000044
    2   0.0000011  -0.0000053  -0.0000032   0.0000029   0.0000073   0.0000039
    3   0.0000055   0.0000018  -0.0000003   0.0000003  -0.0000067  -0.0000085
           25          26
    1   0.0000094  -0.0000011
    2   0.0000003  -0.0000076
    3  -0.0000064  -0.0000047
 Max gradient component =       3.574E-05
 RMS gradient           =       1.272E-05
 Gradient time:  CPU 11.66 s  wall 3.93 s
 Geometry Optimization Parameters
   NAtoms,    NIC,     NZ,  NCons,   NDum,   NFix, NCnnct, MaxDiis
       26     181       0       0       0       0       0       0

 Cartesian Hessian Update
 Hessian updated using BFGS update


** GEOMETRY OPTIMIZATION IN DELOCALIZED INTERNAL COORDINATES **
   Searching for a Minimum

   Optimization Cycle:   7

                       Coordinates (Angstroms)
     ATOM                X               Y               Z
      1  C        -0.6746891364   -1.8276737502   -0.0089878829
      2  C        -1.6463500623   -0.7178360719    0.0621755801
      3  C        -1.4199188737    0.4576686487    0.8096472627
      4  C        -2.3977457023    1.4515877837    0.8911860988
      5  C        -3.6247795881    1.2964755139    0.2326758377
      6  C        -3.8709969220    0.1297939153   -0.5001569146
      7  C        -2.8962010998   -0.8685176045   -0.5748840287
      8  C         0.6785344663   -1.8259615258   -0.0000078351
      9  C         1.6476731954   -0.7136747859   -0.0659644767
     10  C         1.4178048394    0.4664133995   -0.8051198525
     11  C         2.3935954900    1.4627374478   -0.8815280421
     12  C         3.6220469224    1.3055573464   -0.2261697989
     13  C         3.8717831651    0.1343548465    0.4982208447
     14  C         2.8990142475   -0.8662768376    0.5678111064
     15  H        -1.1439950491   -2.8105408836   -0.0563168262
     16  H        -0.4807053883    0.5818845526    1.3362805908
     17  H        -2.2060027654    2.3454078938    1.4771814547
     18  H        -4.3824968367    2.0708895373    0.2995351022
     19  H        -4.8218163398   -0.0052593138   -1.0066047309
     20  H        -3.0960536832   -1.7771235546   -1.1364266711
     21  H         1.1502881180   -2.8078642382    0.0429149394
     22  H         0.4775511679    0.5924857146   -1.3294408913
     23  H         2.1991525598    2.3601230434   -1.4611492447
     24  H         4.3781380068    2.0819002509   -0.2889844668
     25  H         4.8237535479   -0.0023463509    1.0020527388
     26  H         3.1015695668   -1.7783165643    1.1227809607
   Point Group: c1    Number of degrees of freedom:    72


   Energy is   -540.583140733

 Hessian updated using BFGS update

 72 Hessian modes will be used to form the next step
  Hessian Eigenvalues:
     0.005388    0.013190    0.019497    0.020739    0.021560    0.021915
     0.022630    0.022740    0.023119    0.023185    0.023244    0.023413
     0.023522    0.023526    0.023537    0.023551    0.023639    0.023687
     0.023725    0.023732    0.023759    0.023762    0.040248    0.159594
     0.159829    0.159983    0.159986    0.159989    0.159990    0.159993
     0.159996    0.159998    0.159999    0.160067    0.160317    0.218643
     0.219979    0.219995    0.219998    0.220065    0.234295    0.234534
     0.244786    0.245767    0.326529    0.352366    0.355487    0.358487
     0.359473    0.360065    0.360721    0.361024    0.361114    0.361178
     0.361308    0.361392    0.361642    0.363307    0.401245    0.422066
     0.423853    0.425013    0.427672    0.461032    0.461515    0.464617
     0.469199    0.471703    0.473833    0.475626    0.500255    0.587286

 Minimum search - taking simple RFO step
 Searching for Lamda that Minimizes Along All modes
 Value Taken    Lamda =  -0.00000017
 Step Taken.  Stepsize is  0.003147

                             Maximum     Tolerance    Cnvgd?
         Gradient           0.000152      0.000300     YES
         Displacement       0.001295      0.001200      NO
         Energy change     -0.000001      0.000001     YES

 Final energy is   -540.58314073312920     


 ******************************
 **  OPTIMIZATION CONVERGED  **
 ******************************

                       Coordinates (Angstroms)
     ATOM                X               Y               Z
      1  C        -0.6746891364   -1.8276737502   -0.0089878829
      2  C        -1.6463500623   -0.7178360719    0.0621755801
      3  C        -1.4199188737    0.4576686487    0.8096472627
      4  C        -2.3977457023    1.4515877837    0.8911860988
      5  C        -3.6247795881    1.2964755139    0.2326758377
      6  C        -3.8709969220    0.1297939153   -0.5001569146
      7  C        -2.8962010998   -0.8685176045   -0.5748840287
      8  C         0.6785344663   -1.8259615258   -0.0000078351
      9  C         1.6476731954   -0.7136747859   -0.0659644767
     10  C         1.4178048394    0.4664133995   -0.8051198525
     11  C         2.3935954900    1.4627374478   -0.8815280421
     12  C         3.6220469224    1.3055573464   -0.2261697989
     13  C         3.8717831651    0.1343548465    0.4982208447
     14  C         2.8990142475   -0.8662768376    0.5678111064
     15  H        -1.1439950491   -2.8105408836   -0.0563168262
     16  H        -0.4807053883    0.5818845526    1.3362805908
     17  H        -2.2060027654    2.3454078938    1.4771814547
     18  H        -4.3824968367    2.0708895373    0.2995351022
     19  H        -4.8218163398   -0.0052593138   -1.0066047309
     20  H        -3.0960536832   -1.7771235546   -1.1364266711
     21  H         1.1502881180   -2.8078642382    0.0429149394
     22  H         0.4775511679    0.5924857146   -1.3294408913
     23  H         2.1991525598    2.3601230434   -1.4611492447
     24  H         4.3781380068    2.0819002509   -0.2889844668
     25  H         4.8237535479   -0.0023463509    1.0020527388
     26  H         3.1015695668   -1.7783165643    1.1227809607

Z-matrix Print:
$molecule
0 1
C 
C  1 1.410914
H  2 1.086663 1 119.048218
C  2 1.397296 1 121.167557 3 -179.671794 0
H  4 1.085719 2 119.810410 1 179.429512 0
C  4 1.399576 2 120.055883 1 -0.973825 0
H  6 1.085506 4 120.274918 2 -179.520000 0
C  6 1.401181 4 119.499661 2 -0.177490 0
H  8 1.085850 6 119.959367 4 -178.851668 0
C  8 1.396664 6 120.456581 4 0.588533 0
H  10 1.083925 8 119.783778 6 -179.029131 0
C  1 1.476797 2 118.739336 3 -2.600425 0
H  12 1.090191 1 113.352725 2 -31.301464 0
C  12 1.353254 1 131.046097 2 150.092041 0
H  14 1.090196 12 115.584109 1 173.685069 0
C  14 1.476740 12 131.064676 1 -7.723302 0
C  16 1.410962 14 118.718147 12 150.245228 0
H  17 1.086663 16 119.044517 14 -2.585028 0
C  17 1.397278 16 121.171779 14 177.746204 0
H  19 1.085717 17 119.811501 16 179.427929 0
C  19 1.399580 17 120.054676 16 -0.975364 0
H  21 1.085508 19 120.274986 17 -179.525712 0
C  21 1.401176 19 119.498082 17 -0.183693 0
H  23 1.085850 21 119.958321 19 -178.844277 0
C  23 1.396663 21 120.459134 19 0.592892 0
H  25 1.083921 23 119.776655 21 -179.023334 0
$end


 --------------------------------------------------------------

                    Orbital Energies (a.u.)
 --------------------------------------------------------------

 Alpha MOs
 -- Occupied --
-10.1969 -10.1969 -10.1900 -10.1893 -10.1865 -10.1865 -10.1860 -10.1860
-10.1856 -10.1856 -10.1855 -10.1855 -10.1837 -10.1837  -0.8617  -0.8544
 -0.7976  -0.7577  -0.7464  -0.7439  -0.7153  -0.6336  -0.6087  -0.6011
 -0.5958  -0.5531  -0.5223  -0.4948  -0.4773  -0.4639  -0.4527  -0.4429
 -0.4304  -0.4215  -0.4211  -0.4138  -0.3850  -0.3689  -0.3661  -0.3507
 -0.3435  -0.3372  -0.3315  -0.2983  -0.2571  -0.2518  -0.2468  -0.2091
 -- Virtual --
 -0.0420  -0.0026   0.0088   0.0128   0.0658   0.0954   0.1019   0.1141
  0.1399   0.1493   0.1610   0.1612   0.1634   0.1741   0.1767   0.1896
  0.1906   0.2024   0.2120   0.2478   0.2810   0.3052   0.3060   0.3128
  0.3189   0.3291   0.3341   0.3468   0.4100   0.4347   0.4588   0.4990
  0.5159   0.5314   0.5395   0.5489   0.5574   0.5689   0.5830   0.5836
  0.5902   0.5923   0.6049   0.6096   0.6201   0.6232   0.6242   0.6242
  0.6466   0.6484   0.6548   0.6559   0.6574   0.6594   0.6722   0.6773
  0.6968   0.7051   0.7345   0.7488   0.7821   0.8047   0.8451   0.8455
  0.8566   0.8629   0.8637   0.8750   0.8769   0.8976   0.9111   0.9190
  0.9256   0.9457   0.9606   0.9743   0.9785   1.0106   1.0229   1.0471
  1.0544   1.0678   1.0785   1.1041   1.1176   1.1699   1.1780   1.1823
  1.1897   1.2206   1.2304   1.2665   1.2864   1.3346   1.3648   1.4551
  1.4657   1.4807   1.5057   1.5148   1.8959   1.9390
 --------------------------------------------------------------

          Ground-State Mulliken Net Atomic Charges

     Atom                 Charge (a.u.)
  ----------------------------------------
      1 C                    -0.161493
      2 C                     0.069811
      3 C                    -0.137391
      4 C                    -0.134288
      5 C                    -0.120094
      6 C                    -0.129391
      7 C                    -0.157246
      8 C                    -0.161362
      9 C                     0.070135
     10 C                    -0.137465
     11 C                    -0.134303
     12 C                    -0.120089
     13 C                    -0.129364
     14 C                    -0.157404
     15 H                     0.122301
     16 H                     0.144080
     17 H                     0.126635
     18 H                     0.125163
     19 H                     0.125590
     20 H                     0.126233
     21 H                     0.122222
     22 H                     0.144116
     23 H                     0.126631
     24 H                     0.125164
     25 H                     0.125588
     26 H                     0.126222
  ----------------------------------------
  Sum of atomic charges =     0.000000

 -----------------------------------------------------------------
                    Cartesian Multipole Moments
 -----------------------------------------------------------------
    Charge (ESU x 10^10)
                -0.0000
    Dipole Moment (Debye)
         X      -0.0002      Y       0.1580      Z       0.0006
       Tot       0.1580
    Quadrupole Moments (Debye-Ang)
        XX     -74.0644     XY      -0.0158     YY     -75.0269
        XZ       4.0414     YZ       0.0288     ZZ     -83.7659
    Octopole Moments (Debye-Ang^2)
       XXX       0.0306    XXY      11.7481    XYY       0.1067
       YYY      -2.0467    XXZ       0.0319    XYZ     -12.5626
       YYZ      -0.0430    XZZ      -0.1103    YZZ       3.4367
       ZZZ       0.0476
    Hexadecapole Moments (Debye-Ang^3)
      XXXX   -3262.3999   XXXY      -1.7442   XXYY    -661.2534
      XYYY      -1.1723   YYYY    -749.6722   XXXZ     112.6399
      XXYZ       0.1019   XYYZ      -6.7193   YYYZ      -0.6525
      XXZZ    -650.1034   XYZZ      -0.5496   YYZZ    -174.7627
      XZZZ      10.5862   YZZZ      -0.6050   ZZZZ    -277.5178
 -----------------------------------------------------------------
Archival summary:
1\1\node15\OPT\ProcedureUnspecified\6-31G\1412\debashre\ThuJun2017:58:172024ThuJun2017:58:172024\0\\#,OPT,ProcedureUnspecified,6-31G,\\0,1\C\C,1,1.41091\H,2,1.08666,1,119.048\C,2,1.3973,1,121.168,3,-179.672,0\H,4,1.08572,2,119.81,1,179.43,0\C,4,1.39958,2,120.056,1,-0.973825,0\H,6,1.08551,4,120.275,2,-179.52,0\C,6,1.40118,4,119.5,2,-0.17749,0\H,8,1.08585,6,119.959,4,-178.852,0\C,8,1.39666,6,120.457,4,0.588533,0\H,10,1.08393,8,119.784,6,-179.029,0\C,1,1.4768,2,118.739,3,-2.60042,0\H,12,1.09019,1,113.353,2,-31.3015,0\C,12,1.35325,1,131.046,2,150.092,0\H,14,1.0902,12,115.584,1,173.685,0\C,14,1.47674,12,131.065,1,-7.7233,0\C,16,1.41096,14,118.718,12,150.245,0\H,17,1.08666,16,119.045,14,-2.58503,0\C,17,1.39728,16,121.172,14,177.746,0\H,19,1.08572,17,119.812,16,179.428,0\C,19,1.39958,17,120.055,16,-0.975364,0\H,21,1.08551,19,120.275,17,-179.526,0\C,21,1.40118,19,119.498,17,-0.183693,0\H,23,1.08585,21,119.958,19,-178.844,0\C,23,1.39666,21,120.459,19,0.592892,0\H,25,1.08392,23,119.777,21,-179.023,0\\\@

 Total job time:  128.91s(wall), 358.75s(cpu) 
 Thu Jun 20 17:58:18 2024

        *************************************************************
        *                                                           *
        *  Thank you very much for using Q-Chem.  Have a nice day.  *
        *                                                           *
        *************************************************************


