                  Welcome to Q-Chem
     A Quantum Leap Into The Future Of Chemistry


 Q-Chem 5.4 (devel), Q-Chem, Inc., Pleasanton, CA (2021)

 Yihan Shao,  Zhengting Gan,  E. Epifanovsky,  A. T. B. Gilbert,  M. Wormit,  
 J. Kussmann,  A. W. Lange,  A. Behn,  Jia Deng,  Xintian Feng,  D. Ghosh,  
 M. Goldey,  P. R. Horn,  L. D. Jacobson,  I. Kaliman,  T. Kus,  A. Landau,  
 Jie Liu,  E. I. Proynov,  R. M. Richard,  R. P. Steele,  E. J. Sundstrom,  
 H. L. Woodcock III,  P. M. Zimmerman,  D. Zuev,  B. Alam,  B. Albrecht,  
 A. Aldossary,  E. Alguire,  J. H. Andersen,  S. A. Baeppler,  D. Barton,  
 K. Begam,  Z. Benda,  Y. A. Bernard,  E. J. Berquist,  K. B. Bravaya,  
 H. Burton,  K. Carter-Fenk,  D. Casanova,  R. Chakraborty,  Chun-Min Chang,  
 Yunqing Chen,  A. Chien,  K. D. Closser,  V. Cofer-Shabica,  M. P. Coons,  
 S. Coriani,  S. Dasgupta,  A. L. Dempwolff,  M. Diedenhofen,  Hainam Do,  
 R. G. Edgar,  S. Ehlert,  Po-Tung Fang,  S. Faraji,  S. Fatehi,  
 Qingguo Feng,  J. Fosso-Tande,  J. Gayvert,  Qinghui Ge,  A. Ghysels,  
 G. Gidofalvi,  J. Gomes,  J. Gonthier,  C. Gonzalez-Espinoza,  S. Gulania,  
 A. Gunina,  D. Hait,  M. W. D. Hanson-Heine,  S. Hammes-Schiffer,  
 P. H. P. Harbach,  A. W. Hauser,  M. F. Herbst,  J. E. Herr,  
 E. G. Hohenstein,  Z. C. Holden,  S. Houck,  Xunkun Huang,  Kerwin Hui,  
 B. C. Huynh,  M. Ivanov,  T.-C. Jagau,  Hyunjun Ji,  Hanjie Jiang,  
 S. Kaehler,  B. Kaduk,  K. Khistyaev,  Jaehoon Kim,  P. Klunzinger,  K. Koh,  
 D. Kosenkov,  L. Koulias,  T. Kowalczyk,  C. M. Krauter,  A. Kunitsa,  
 Ka Un Lao,  A. Laurent,  K. V. Lawler,  Joonho Lee,  D. Lefrancois,  
 S. Lehtola,  D. S. Levine,  Rain Li,  Yi-Pei Li,  Jiashu Liang,  
 M. Liebenthal,  You-Sheng Lin,  Fenglai Liu,  Kuan-Yu Liu,  E. Livshits,  
 M. Loipersberger,  A. Luenser,  A. Manjanath,  P. Manohar,  E. Mansoor,  
 S. F. Manzer,  Shan-Ping Mao,  Yuezhi Mao,  N. Mardirossian,  
 A. V. Marenich,  T. Markovich,  L. A. Martinez-Martinez,  S. A. Maurer,  
 N. J. Mayhall,  S. Mason,  S. C. McKenzie,  P. F. McLaughlin,  
 M. F. S. J. Menger,  J.-M. Mewes,  P. Morgante,  A. F. Morrison,  
 J. W. Mullinax,  K. Nanda,  T. S. Nguyen-Beck,  R. Olivares-Amaya,  
 K. J. Oosterbaan,  G. Paran,  J. A. Parkhill,  Alexander C. Paul,  
 Suranjan K. Paul,  F. Pavosevic,  Zheng Pei,  T. M. Perrine,  F. Plasser,  
 P. Pokhilko,  S. Prager,  A. Prociuk,  E. Ramos,  B. Rana,  A. E. Rask,  
 A. Rettig,  D. R. Rehn,  F. Rob,  E. Rossomme,  T. Scheele,  M. Scheurer,  
 M. Schneider,  N. Sergueev,  S. M. Sharada,  S. Sharma,  W. Skomorowski,  
 D. W. Small,  T. Stauch,  C. J. Stein,  T. Stein,  Yu-Chuan Su,  
 S. P. Veccham,  Zhen Tao,  A. J. W. Thom,  A. Tkatchenko,  T. Tsuchimochi,  
 N. M. Tubman,  M. H. Vera,  M. L. Vidal,  L. Vogt,  O. Vydrov,  
 M. A. Watson,  J. Wenzel,  M. de Wergifosse,  T. A. Wesolowski,  A. White,  
 J. Witte,  A. Yamada,  Jun Yang,  K. Yao,  S. Yeganeh,  S. R. Yost,  
 Zhi-Qiang You,  A. Zech,  Igor Ying Zhang,  Yu Zhang,  Xing Zhang,  
 Yan Zhao,  Ying Zhu,  B. R. Brooks,  G. K. L. Chan,  C. J. Cramer,  
 M. S. Gordon,  S. Grimme,  W. J. Hehre,  A. Klamt,  M. W. Schmidt,  
 C. D. Sherrill,  D. G. Truhlar,  A. Aspuru-Guzik,  R. Baer,  A. T. Bell,  
 N. A. Besley,  Jeng-Da Chai,  A. E. DePrince, III,  R. A. DiStasio Jr.,  
 A. Dreuw,  B. D. Dunietz,  T. R. Furlani,  Chao-Ping Hsu,  Yousung Jung,  
 Jing Kong,  D. S. Lambrecht,  WanZhen Liang,  C. Ochsenfeld,  
 V. A. Rassolov,  L. V. Slipchenko,  J. E. Subotnik,  T. Van Voorhis,  
 J. M. Herbert,  A. I. Krylov,  P. M. W. Gill,  M. Head-Gordon

 Contributors to earlier versions of Q-Chem not listed above: 
 R. D. Adamson,  B. Austin,  J. Baker,  G. J. O. Beran,  K. Brandhorst,  
 S. T. Brown,  E. F. C. Byrd,  A. K. Chakraborty,  C.-L. Cheng,  
 Siu Hung Chien,  D. M. Chipman,  D. L. Crittenden,  H. Dachsel,  
 R. J. Doerksen,  A. D. Dutoi,  L. Fusti-Molnar,  W. A. Goddard III,  
 A. Golubeva-Zadorozhnaya,  S. R. Gwaltney,  G. Hawkins,  A. Heyden,  
 S. Hirata,  G. Kedziora,  F. J. Keil,  C. Kelley,  Jihan Kim,  R. A. King,  
 R. Z. Khaliullin,  P. P. Korambath,  W. Kurlancheek,  A. M. Lee,  M. S. Lee,  
 S. V. Levchenko,  Ching Yeh Lin,  D. Liotard,  R. C. Lochan,  I. Lotan,  
 P. E. Maslen,  N. Nair,  D. P. O'Neill,  D. Neuhauser,  E. Neuscamman,  
 C. M. Oana,  R. Olson,  B. Peters,  R. Peverati,  P. A. Pieniazek,  
 Y. M. Rhee,  J. Ritchie,  M. A. Rohrdanz,  E. Rosta,  N. J. Russ,  
 H. F. Schaefer III,  N. E. Schultz,  N. Shenvi,  A. C. Simmonett,  A. Sodt,  
 D. Stuck,  K. S. Thanthiriwatte,  V. Vanovschi,  Tao Wang,  A. Warshel,  
 C. F. Williams,  Q. Wu,  X. Xu,  W. Zhang

 Please cite Q-Chem as follows:
 Y. Shao et al., Mol. Phys. 113, 184-215 (2015)
 DOI: 10.1080/00268976.2014.952696

 Q-Chem 5.4.0 for Intel X86 EM64T Linux

 Parts of Q-Chem use Armadillo 9.800.1 (Horizon Scraper).
 http://arma.sourceforge.net/

 Q-Chem begins on Thu Jun 20 18:42:19 2024  

node15
Host: 0

     Scratch files written to /scratch/debashree/qchem12833//
Processing $rem in /home/debashree/Qchem5.3/qchem5.3/config/preferences:
Processing $rem in /home/debashree/.qchemrc:

Checking the input file for inconsistencies... 	...done.

--------------------------------------------------------------
User input:
--------------------------------------------------------------
$molecule
0 1
C	 0.99086	-0.26623	 0.96805
C	 1.2376		 0.25632	-0.38831
C	 0.27806	 0.2061		-1.40641
C	 0.57398	 0.66976	-2.6811
C	 1.83253	 1.19		-2.96838
C	 2.80033	 1.23014	-1.96961
C	 2.50617	 0.75861	-0.69674
C	-0.12407	-0.26101	 1.71287
C	-1.4311		 0.37695	 1.47448
C	-1.5684		 1.60958	 0.82512
C	-2.81965	 2.18904	 0.66446
C	-3.95929	 1.55397	 1.14953
C	-3.83451	 0.33697	 1.81193
C	-2.58146	-0.23805	 1.98011
H	 1.85126	-0.74471	 1.41512
H	-0.69523	-0.20771	-1.20136
H	-0.17704	 0.6181		-3.45426
H	 2.05918	 1.54927	-3.96002
H	 3.78257	 1.62243	-2.1829
H	 3.26412	 0.78679	 0.07195
H	-0.06223	-0.7936		 2.65172
H	-0.69341	 2.11897	 0.45746
H	-2.90503	 3.14215	 0.1657
H	-4.92998	 2.00713	 1.02204
H	-4.70945	-0.16001	 2.20143
H	-2.49144	-1.17974	 2.50099
$end

$rem
JOBTYPE			= opt
METHOD  		= rimp2
N_FROZEN_CORE           = fc 
BASIS   		= 6-31G
AUX_BASIS		= rimp2-cc-pVDZ
GEOM_OPT_MAX_CYCLES 	= 250
MAX_SCF_CYCLES 		= 200
SYMMETRY 		= true
MEM_TOTAL 		= 20000
MEM_STATIC 		= 2000
$end
--------------------------------------------------------------
 ----------------------------------------------------------------
             Standard Nuclear Orientation (Angstroms)
    I     Atom           X                Y                Z
 ----------------------------------------------------------------
    1      C      -0.6682789875    -1.8458632640     0.0087022960
    2      C      -1.6260279095    -0.7270203657     0.0762237819
    3      C      -1.3901693322     0.4285290092     0.8304406232
    4      C      -2.3435022808     1.4354094711     0.8992291582
    5      C      -3.5522718816     1.3104210964     0.2207149602
    6      C      -3.8056780476     0.1595151441    -0.5188730173
    7      C      -2.8547946713    -0.8509673833    -0.5806350582
    8      C       0.6725255881    -1.8439072378    -0.0009023724
    9      C       1.6272709863    -0.7235120760    -0.0738823739
   10      C       1.3785434099     0.4406587993    -0.8105893593
   11      C       2.3300260328     1.4489629876    -0.8828082750
   12      C       3.5495695676     1.3172361098    -0.2249726300
   13      C       3.8158949478     0.1577929682     0.4962729604
   14      C       2.8670618088    -0.8544329418     0.5609351351
   15      H      -1.1360204082    -2.8203337430    -0.0182811090
   16      H      -0.4648149849     0.5314537773     1.3723847779
   17      H      -2.1457481207     2.3165851582     1.4899057892
   18      H      -4.2909442980     2.0946723613     0.2764649351
   19      H      -4.7429826218     0.0470993054    -1.0413692376
   20      H      -3.0607242651    -1.7443718000    -1.1512384070
   21      H       1.1422240700    -2.8171315283     0.0327641206
   22      H       0.4447776548     0.5496513073    -1.3363856086
   23      H       2.1222426037     2.3368744783    -1.4597911044
   24      H       4.2861168587     2.1033608613    -0.2828753479
   25      H       4.7616692800     0.0396215017     1.0020058851
   26      H       3.0831888471    -1.7544155840     1.1172803318
 ----------------------------------------------------------------
 Molecular Point Group                 C1    NOp =  1
 Largest Abelian Subgroup              C1    NOp =  1
 Nuclear Repulsion Energy =         766.28344373 hartrees
 There are       48 alpha and       48 beta electrons
 Requested basis set is 6-31G
 There are 66 shells and 150 basis functions

 Total QAlloc Memory Limit  20000 MB
 Mega-Array Size      1956 MB
 MEM_STATIC part      2000 MB
 Requested basis set is rimp2-cc-pVDZ
 There are 324 shells and 1020 basis functions
 A cutoff of  1.0D-11 yielded   1724 shell pairs
 There are      9908 function pairs
 Smallest overlap matrix eigenvalue = 5.96E-04

 Scale SEOQF with 1.000000e-01/1.000000e-01/1.000000e+00

 Standard Electronic Orientation quadrupole field applied
 Nucleus-field energy     =    -0.0000000067 hartrees
 Guess from superposition of atomic densities
 Warning:  Energy on first SCF cycle will be non-variational
 SAD guess density has 96.000000 electrons

 -----------------------------------------------------------------------
  General SCF calculation program by
  Eric Jon Sundstrom, Paul Horn, Yuezhi Mao, Dmitri Zuev, Alec White,
  David Stuck, Shaama M.S., Shane Yost, Joonho Lee, David Small,
  Daniel Levine, Susi Lehtola, Hugh Burton, Evgeny Epifanovsky,
  Bang C. Huynh
 -----------------------------------------------------------------------
 Hartree-Fock
 using 6 threads for integral computing
 -------------------------------------------------------
 OpenMP Integral computing Module                
 Release: version 1.0, May 2013, Q-Chem Inc. Pittsburgh 
 -------------------------------------------------------
 A restricted SCF calculation will be
 performed using DIIS
 SCF converges when DIIS error is below 1.0e-08
 ---------------------------------------
  Cycle       Energy         DIIS error
 ---------------------------------------
    1    -543.1887256345      8.78e-02  
    2    -536.8214893309      5.09e-03  
    3    -536.9376241037      1.27e-03  
    4    -536.9452643460      4.50e-04  
    5    -536.9459442565      9.23e-05  
    6    -536.9459820179      2.49e-05  
    7    -536.9459850228      6.93e-06  
    8    -536.9459855160      3.03e-06  
    9    -536.9459856105      1.51e-06  
   10    -536.9459856351      6.25e-07  
   11    -536.9459856404      2.55e-07  
   12    -536.9459856411      5.93e-08  
   13    -536.9459856408      1.55e-08  
   14    -536.9459856407      4.93e-09  Convergence criterion met
 ---------------------------------------
 SCF time:   CPU 15.01s  wall 6.00s 
 SCF   energy in the final basis set =     -536.9459856407
 Total energy in the final basis set =     -536.9459856407


 --------------------------------------------------------------
  Generalized many-body perturbation theory program
  by Joonho Lee, Fazle Rob, Xintian Feng, Evgeny Epifanovsky

 No regularization used 
 (reg. param. = 0.0000e+00)
         1      0.00048067     MINRES Iteration
         2      0.00008978     MINRES Iteration
         3      0.00002749     MINRES Iteration
         4      0.00000696     MINRES Iteration
         5      0.00000252     MINRES Iteration
         6      0.00000100     MINRES Iteration
         7      0.00000038     MINRES Done

 In RI-MP2 calculation: 
 # of frozen core orbitals: 14

 Components of the RIMP2 correlation energy:
        aaaa    correlation energy =        -0.1555973388 a.u.
        abab    correlation energy =        -0.8968063268 a.u.
        bbbb    correlation energy =        -0.1555973388 a.u.
        non-Brillouin singles      =        -0.0000000000 a.u.
        total same-spin energy     =        -0.3111946777 a.u.
        total opposite-spin energy =        -0.8968063268 a.u.

 Total  RIMP2   correlation energy =        -1.2080010044 a.u.
        RIMP2         total energy =      -538.1539866452 a.u.

 RI-MP2 Gradient Time:  CPU 135.55 s  wall 49.23 s

 --------------------------------------------------------------

                    Orbital Energies (a.u.)
 --------------------------------------------------------------

 Alpha MOs
 -- Occupied --
-11.2474 -11.2474 -11.2417 -11.2401 -11.2372 -11.2372 -11.2364 -11.2363
-11.2357 -11.2356 -11.2351 -11.2351 -11.2335 -11.2334  -1.1662  -1.1568
 -1.0838  -1.0309  -1.0179  -1.0149  -0.9790  -0.8629  -0.8310  -0.8221
 -0.8151  -0.7559  -0.7106  -0.6796  -0.6571  -0.6418  -0.6275  -0.6157
 -0.5976  -0.5862  -0.5859  -0.5785  -0.5405  -0.5095  -0.5073  -0.4962
 -0.4885  -0.4800  -0.4703  -0.4086  -0.3439  -0.3378  -0.3305  -0.2841
 -- Virtual --
  0.0926   0.1380   0.1555   0.1585   0.2320   0.2389   0.2450   0.2620
  0.2870   0.2996   0.3101   0.3122   0.3242   0.3379   0.3398   0.3434
  0.3592   0.3801   0.3899   0.4241   0.4552   0.4770   0.4796   0.4951
  0.4984   0.5067   0.5158   0.5313   0.6000   0.6373   0.6505   0.7109
  0.7442   0.7574   0.7646   0.7719   0.7765   0.7930   0.8031   0.8093
  0.8196   0.8246   0.8330   0.8366   0.8538   0.8574   0.8640   0.8679
  0.8815   0.8845   0.8927   0.8955   0.8977   0.9002   0.9136   0.9296
  0.9384   0.9559   0.9899   1.0034   1.0387   1.0581   1.1278   1.1344
  1.1366   1.1390   1.1404   1.1477   1.1525   1.1690   1.1745   1.1861
  1.1881   1.2171   1.2414   1.2540   1.2555   1.2736   1.2761   1.3023
  1.3107   1.3391   1.3436   1.3501   1.3715   1.4197   1.4291   1.4314
  1.4500   1.4769   1.4975   1.5249   1.5460   1.5835   1.6332   1.7242
  1.7309   1.7526   1.7819   1.7838   2.1672   2.2121
 --------------------------------------------------------------

          Ground-State Mulliken Net Atomic Charges

     Atom                 Charge (a.u.)
  ----------------------------------------
      1 C                    -0.144679
      2 C                    -0.006700
      3 C                    -0.145306
      4 C                    -0.159485
      5 C                    -0.147197
      6 C                    -0.155484
      7 C                    -0.165175
      8 C                    -0.143383
      9 C                    -0.004370
     10 C                    -0.145784
     11 C                    -0.159650
     12 C                    -0.147132
     13 C                    -0.155482
     14 C                    -0.166053
     15 H                     0.139370
     16 H                     0.170441
     17 H                     0.153409
     18 H                     0.152434
     19 H                     0.152781
     20 H                     0.154560
     21 H                     0.138992
     22 H                     0.170882
     23 H                     0.153388
     24 H                     0.152389
     25 H                     0.152752
     26 H                     0.154479
  ----------------------------------------
  Sum of atomic charges =     0.000000

 -----------------------------------------------------------------
                    Cartesian Multipole Moments
 -----------------------------------------------------------------
    Charge (ESU x 10^10)
                -0.0000
    Dipole Moment (Debye)
         X      -0.0026      Y       0.1644      Z       0.0018
       Tot       0.1645
    Quadrupole Moments (Debye-Ang)
        XX     -76.8143     XY      -0.0563     YY     -77.5347
        XZ       3.9932     YZ       0.0115     ZZ     -85.5835
    Octopole Moments (Debye-Ang^2)
       XXX       0.4834    XXY      11.2223    XYY       0.1057
       YYY      -1.0155    XXZ      -0.2156    XYZ     -11.2813
       YYZ       0.0104    XZZ      -0.3381    YZZ       3.3900
       ZZZ       0.0615
    Hexadecapole Moments (Debye-Ang^3)
      XXXX   -3266.1185   XXXY      -1.3820   XXYY    -663.8598
      XYYY       0.0503   YYYY    -776.1474   XXXZ     106.0360
      XXYZ       0.0263   XYYZ      -6.5676   YYYZ      -0.2118
      XXZZ    -644.3227   XYZZ      -0.0956   YYZZ    -180.9859
      XZZZ       8.7173   YZZZ       0.4187   ZZZZ    -288.8441
 -----------------------------------------------------------------
 DrvMan is completing analytic gradient of the MP2 energy
 MP2 relaxed dipole moment
            1
    1  -0.0010129
    2   0.0646911
    3   0.0007257
	Magnitude:	 0.065 au	 0.164 Debye
 MP2 energy read as -538.153987
 Full Analytical Gradient of MP2 Energy (in au.)
             1             2             3             4             5
    1    0.01716195   -0.00877116   -0.00975497   -0.00271544    0.00888090
    2   -0.00042940    0.00642253    0.00012019   -0.01079385   -0.00854502
    3   -0.00084359    0.00209132   -0.00614644   -0.00651115   -0.00024486
             6             7             8             9            10
    1    0.01089247    0.00193072   -0.01685286    0.00855355    0.00982323
    2    0.00053897    0.00931916   -0.00047050    0.00650282    0.00004569
    3    0.00589785    0.00626933    0.00076465   -0.00220170    0.00599910
            11            12            13            14            15
    1    0.00277611   -0.00882231   -0.01100904   -0.00198211    0.00507287
    2   -0.01083799   -0.00868468    0.00072218    0.00922284    0.00893870
    3    0.00626955    0.00038820   -0.00576293   -0.00610643   -0.00075225
            16            17            18            19            20
    1   -0.00849155   -0.00153520    0.00601556    0.00777146    0.00174287
    2   -0.00077582   -0.00722826   -0.00640446    0.00089865    0.00799600
    3   -0.00517836   -0.00488885   -0.00045139    0.00420528    0.00511786
            21            22            23            24            25
    1   -0.00520490    0.00856573    0.00162108   -0.00602347   -0.00783743
    2    0.00896469   -0.00082530   -0.00728748   -0.00637779    0.00090922
    3    0.00079661    0.00508764    0.00477378    0.00045907   -0.00405639
            26
    1   -0.00180806
    2    0.00805893
    3   -0.00497591
 Gradient time:  CPU 0.08 s  wall 0.42 s
 Geometry Optimization Parameters
   NAtoms,    NIC,     NZ,  NCons,   NDum,   NFix, NCnnct, MaxDiis
       26     181       0       0       0       0       0       0


** GEOMETRY OPTIMIZATION IN DELOCALIZED INTERNAL COORDINATES **
   Searching for a Minimum

   Optimization Cycle:   1

                       Coordinates (Angstroms)
     ATOM                X               Y               Z
      1  C        -0.6682789875   -1.8458632640    0.0087022960
      2  C        -1.6260279095   -0.7270203657    0.0762237819
      3  C        -1.3901693322    0.4285290092    0.8304406232
      4  C        -2.3435022808    1.4354094711    0.8992291582
      5  C        -3.5522718816    1.3104210964    0.2207149602
      6  C        -3.8056780476    0.1595151441   -0.5188730173
      7  C        -2.8547946713   -0.8509673833   -0.5806350582
      8  C         0.6725255881   -1.8439072378   -0.0009023724
      9  C         1.6272709863   -0.7235120760   -0.0738823739
     10  C         1.3785434099    0.4406587993   -0.8105893593
     11  C         2.3300260328    1.4489629876   -0.8828082750
     12  C         3.5495695676    1.3172361098   -0.2249726300
     13  C         3.8158949478    0.1577929682    0.4962729604
     14  C         2.8670618088   -0.8544329418    0.5609351351
     15  H        -1.1360204082   -2.8203337430   -0.0182811090
     16  H        -0.4648149849    0.5314537773    1.3723847779
     17  H        -2.1457481207    2.3165851582    1.4899057892
     18  H        -4.2909442980    2.0946723613    0.2764649351
     19  H        -4.7429826218    0.0470993054   -1.0413692376
     20  H        -3.0607242651   -1.7443718000   -1.1512384070
     21  H         1.1422240700   -2.8171315283    0.0327641206
     22  H         0.4447776548    0.5496513073   -1.3363856086
     23  H         2.1222426037    2.3368744783   -1.4597911044
     24  H         4.2861168587    2.1033608613   -0.2828753479
     25  H         4.7616692800    0.0396215017    1.0020058851
     26  H         3.0831888471   -1.7544155840    1.1172803318
   Point Group: c1    Number of degrees of freedom:    72


   Energy is   -538.153986645


 Attempting to generate delocalized internal coordinates
 Initial Hessian constructed with Jon Baker's OPTIMIZE code

 72 Hessian modes will be used to form the next step
  Hessian Eigenvalues:
     0.012574    0.012642    0.019495    0.019504    0.021544    0.021571
     0.022641    0.022653    0.023116    0.023122    0.023242    0.023248
     0.023523    0.023524    0.023537    0.023538    0.023637    0.023640
     0.023725    0.023730    0.023758    0.023760    0.030233    0.159985
     0.159985    0.159985    0.159987    0.159990    0.159990    0.159992
     0.159993    0.159996    0.159997    0.159998    0.159998    0.219977
     0.219979    0.219998    0.219999    0.220006    0.220007    0.234576
     0.234578    0.249503    0.249520    0.352268    0.352867    0.358436
     0.358541    0.360055    0.360074    0.361022    0.361025    0.361166
     0.361189    0.361376    0.361405    0.363224    0.363405    0.422105
     0.422195    0.425000    0.425031    0.460994    0.461098    0.464629
     0.464712    0.471683    0.471728    0.475646    0.475706    0.570171

 Minimum search - taking simple RFO step
 Searching for Lamda that Minimizes Along All modes
 Value Taken    Lamda =  -0.01643368
 Step Taken.  Stepsize is  0.210952

                             Maximum     Tolerance    Cnvgd?
         Gradient           0.049739      0.000300      NO
         Displacement       0.109789      0.001200      NO
         Energy change     *********      0.000001      NO


 New Cartesian Coordinates Obtained by Inverse Iteration

 Displacement from previous Coordinates is:  0.672667
 ----------------------------------------------------------------
             Standard Nuclear Orientation (Angstroms)
    I     Atom           X                Y                Z
 ----------------------------------------------------------------
    1      C      -0.6813178416    -1.8974337545     0.0061846335
    2      C      -1.6321978754    -0.7537212844     0.0778252455
    3      C      -1.3870135999     0.3941721581     0.8825035332
    4      C      -2.3369558761     1.4352241915     0.9584025785
    5      C      -3.5538177139     1.3485493711     0.2407371617
    6      C      -3.8181472211     0.2043289421    -0.5469352308
    7      C      -2.8695511104    -0.8393921476    -0.6184535624
    8      C       0.6849569925    -1.8952438643     0.0004181959
    9      C       1.6331173152    -0.7499054974    -0.0757815016
   10      C       1.3756968794     0.4065831957    -0.8643452451
   11      C       2.3240162684     1.4488683102    -0.9429005706
   12      C       3.5513979562     1.3554234701    -0.2441821148
   13      C       3.8280121509     0.2027862718     0.5266666746
   14      C       2.8811411437    -0.8423075439     0.6005545491
   15      H      -1.1665478032    -2.8794173467    -0.0221918902
   16      H      -0.4611236960     0.4632585964     1.4558064887
   17      H      -2.1341935772     2.3060130346     1.5845432776
   18      H      -4.2873006534     2.1539096254     0.3034319695
   19      H      -4.7579150989     0.1229446496    -1.0959378317
   20      H      -3.0821221738    -1.7246142427    -1.2241303010
   21      H       1.1727680564    -2.8757947039     0.0341399562
   22      H       0.4419856934     0.4816227253    -1.4238059606
   23      H       2.1117098257     2.3261642236    -1.5566697690
   24      H       4.2831767195     2.1621969671    -0.3086959515
   25      H       4.7759918711     0.1157195485     1.0604780982
   26      H       3.1033872147    -1.7340464832     1.1930584214
 ----------------------------------------------------------------
 Molecular Point Group                 C1    NOp =  1
 Largest Abelian Subgroup              C1    NOp =  1
 Nuclear Repulsion Energy =         756.53591674 hartrees
 There are       48 alpha and       48 beta electrons
 Applying Cartesian multipole field
    Component          Value
    ---------          -----
     (2,0,0)        1.00000E-11
     (0,2,0)        2.00000E-11
     (0,0,2)       -3.00000E-10
 Nucleus-field energy     =    -0.0000000118 hartrees
 Requested basis set is 6-31G
 There are 66 shells and 150 basis functions
 Requested basis set is rimp2-cc-pVDZ
 There are 324 shells and 1020 basis functions
 A cutoff of  1.0D-11 yielded   1711 shell pairs
 There are      9841 function pairs
 Smallest overlap matrix eigenvalue = 7.14E-04
 Guess MOs from SCF MO coefficient file

 -----------------------------------------------------------------------
  General SCF calculation program by
  Eric Jon Sundstrom, Paul Horn, Yuezhi Mao, Dmitri Zuev, Alec White,
  David Stuck, Shaama M.S., Shane Yost, Joonho Lee, David Small,
  Daniel Levine, Susi Lehtola, Hugh Burton, Evgeny Epifanovsky,
  Bang C. Huynh
 -----------------------------------------------------------------------
 Hartree-Fock
 using 6 threads for integral computing
 -------------------------------------------------------
 OpenMP Integral computing Module                
 Release: version 1.0, May 2013, Q-Chem Inc. Pittsburgh 
 -------------------------------------------------------
 A restricted SCF calculation will be
 performed using DIIS
 SCF converges when DIIS error is below 1.0e-08
 ---------------------------------------
  Cycle       Energy         DIIS error
 ---------------------------------------
    1    -536.9260907102      1.20e-03  
    2    -536.9329775897      3.44e-04  
    3    -536.9337328051      1.19e-04  
    4    -536.9338367544      3.34e-05  
    5    -536.9338474186      1.37e-05  
    6    -536.9338484769      4.41e-06  
    7    -536.9338486108      1.27e-06  
    8    -536.9338486197      3.29e-07  
    9    -536.9338486208      9.41e-08  
   10    -536.9338486199      4.02e-08  
   11    -536.9338486192      1.53e-08  
   12    -536.9338486194      8.26e-09  Convergence criterion met
 ---------------------------------------
 SCF time:   CPU 12.36s  wall 4.00s 
 SCF   energy in the final basis set =     -536.9338486194
 Total energy in the final basis set =     -536.9338486194


 --------------------------------------------------------------
  Generalized many-body perturbation theory program
  by Joonho Lee, Fazle Rob, Xintian Feng, Evgeny Epifanovsky

 No regularization used 
 (reg. param. = 0.0000e+00)
         1      0.00051164     MINRES Iteration
         2      0.00009467     MINRES Iteration
         3      0.00002993     MINRES Iteration
         4      0.00000779     MINRES Iteration
         5      0.00000303     MINRES Iteration
         6      0.00000131     MINRES Iteration
         7      0.00000049     MINRES Done

 In RI-MP2 calculation: 
 # of frozen core orbitals: 14

 Components of the RIMP2 correlation energy:
        aaaa    correlation energy =        -0.1577305304 a.u.
        abab    correlation energy =        -0.9123412228 a.u.
        bbbb    correlation energy =        -0.1577305304 a.u.
        non-Brillouin singles      =        -0.0000000000 a.u.
        total same-spin energy     =        -0.3154610607 a.u.
        total opposite-spin energy =        -0.9123412228 a.u.

 Total  RIMP2   correlation energy =        -1.2278022836 a.u.
        RIMP2         total energy =      -538.1616509029 a.u.

 RI-MP2 Gradient Time:  CPU 133.40 s  wall 46.69 s

 --------------------------------------------------------------

                    Orbital Energies (a.u.)
 --------------------------------------------------------------

 Alpha MOs
 -- Occupied --
-11.2563 -11.2563 -11.2504 -11.2490 -11.2458 -11.2457 -11.2450 -11.2449
-11.2444 -11.2443 -11.2437 -11.2436 -11.2422 -11.2421  -1.1522  -1.1422
 -1.0735  -1.0219  -1.0090  -1.0064  -0.9698  -0.8574  -0.8242  -0.8166
 -0.8085  -0.7499  -0.6999  -0.6746  -0.6504  -0.6390  -0.6235  -0.6099
 -0.5915  -0.5810  -0.5809  -0.5731  -0.5386  -0.5001  -0.5000  -0.4930
 -0.4872  -0.4774  -0.4694  -0.4018  -0.3401  -0.3334  -0.3264  -0.2818
 -- Virtual --
  0.0882   0.1322   0.1496   0.1511   0.2212   0.2365   0.2422   0.2592
  0.2844   0.2963   0.3064   0.3075   0.3179   0.3307   0.3331   0.3360
  0.3481   0.3666   0.3792   0.4125   0.4434   0.4681   0.4686   0.4815
  0.4859   0.4959   0.5013   0.5209   0.5924   0.6219   0.6510   0.6989
  0.7305   0.7422   0.7567   0.7655   0.7706   0.7812   0.7970   0.8013
  0.8158   0.8181   0.8245   0.8280   0.8493   0.8504   0.8569   0.8601
  0.8717   0.8797   0.8865   0.8898   0.8908   0.8965   0.9074   0.9235
  0.9294   0.9500   0.9758   0.9927   1.0396   1.0466   1.1157   1.1196
  1.1211   1.1311   1.1315   1.1393   1.1432   1.1586   1.1642   1.1731
  1.1767   1.2050   1.2292   1.2363   1.2374   1.2626   1.2629   1.2917
  1.2965   1.3194   1.3266   1.3433   1.3573   1.4013   1.4130   1.4167
  1.4325   1.4600   1.4785   1.5077   1.5260   1.5602   1.6005   1.6970
  1.7031   1.7341   1.7584   1.7668   2.1403   2.1732
 --------------------------------------------------------------

          Ground-State Mulliken Net Atomic Charges

     Atom                 Charge (a.u.)
  ----------------------------------------
      1 C                    -0.145585
      2 C                    -0.007914
      3 C                    -0.146644
      4 C                    -0.157906
      5 C                    -0.148840
      6 C                    -0.154647
      7 C                    -0.165570
      8 C                    -0.144487
      9 C                    -0.005936
     10 C                    -0.147172
     11 C                    -0.157990
     12 C                    -0.148808
     13 C                    -0.154594
     14 C                    -0.166342
     15 H                     0.141737
     16 H                     0.170455
     17 H                     0.153860
     18 H                     0.152542
     19 H                     0.153076
     20 H                     0.154671
     21 H                     0.141360
     22 H                     0.170798
     23 H                     0.153829
     24 H                     0.152521
     25 H                     0.153058
     26 H                     0.154529
  ----------------------------------------
  Sum of atomic charges =     0.000000

 -----------------------------------------------------------------
                    Cartesian Multipole Moments
 -----------------------------------------------------------------
    Charge (ESU x 10^10)
                -0.0000
    Dipole Moment (Debye)
         X      -0.0023      Y       0.1688      Z       0.0009
       Tot       0.1688
    Quadrupole Moments (Debye-Ang)
        XX     -77.0640     XY      -0.0549     YY     -77.7110
        XZ       4.4060     YZ       0.0074     ZZ     -85.6263
    Octopole Moments (Debye-Ang^2)
       XXX       0.5277    XXY      13.2231    XYY       0.1038
       YYY      -0.8605    XXZ      -0.1890    XYZ     -12.1714
       YYZ      -0.0069    XZZ      -0.3386    YZZ       4.0909
       ZZZ       0.0517
    Hexadecapole Moments (Debye-Ang^3)
      XXXX   -3294.0577   XXXY      -1.4501   XXYY    -669.0950
      XYYY      -0.0725   YYYY    -799.5131   XXXZ     117.4139
      XXYZ       0.0292   XYYZ      -7.5406   YYYZ      -0.1357
      XXZZ    -651.2349   XYZZ      -0.1703   YYZZ    -188.8260
      XZZZ      10.3589   YZZZ       0.5135   ZZZZ    -315.6387
 -----------------------------------------------------------------
 DrvMan is completing analytic gradient of the MP2 energy
 MP2 relaxed dipole moment
            1
    1  -0.0008869
    2   0.0664208
    3   0.0003551
	Magnitude:	 0.066 au	 0.169 Debye
 MP2 energy read as -538.161651
 Full Analytical Gradient of MP2 Energy (in au.)
             1             2             3             4             5
    1    0.00016518   -0.00008166    0.00112133    0.00011979   -0.00097191
    2    0.00000701   -0.00167531    0.00034784    0.00104812    0.00139582
    3   -0.00087228    0.00082222   -0.00001061    0.00104416    0.00004165
             6             7             8             9            10
    1   -0.00138566   -0.00056278   -0.00011871    0.00003506   -0.00113657
    2   -0.00034775   -0.00119263    0.00002155   -0.00167411    0.00036577
    3   -0.00082794   -0.00044009    0.00082986   -0.00085274    0.00005973
            11            12            13            14            15
    1   -0.00015227    0.00099586    0.00139350    0.00059580   -0.00051756
    2    0.00106645    0.00135953   -0.00029723   -0.00124580    0.00010266
    3   -0.00103734   -0.00001114    0.00079442    0.00037477   -0.00078226
            16            17            18            19            20
    1   -0.00012876    0.00006614   -0.00007932   -0.00007193   -0.00010939
    2    0.00021266    0.00011804    0.00004658    0.00001899   -0.00010224
    3    0.00012652    0.00007351    0.00001945   -0.00010773    0.00003364
            21            22            23            24            25
    1    0.00048145    0.00014321   -0.00005728    0.00006994    0.00007679
    2    0.00010617    0.00022248    0.00011613    0.00005981    0.00001175
    3    0.00085694   -0.00010522   -0.00007320   -0.00001884    0.00010540
            26
    1    0.00010976
    2   -0.00009228
    3   -0.00004289
 Gradient time:  CPU 0.08 s  wall 0.16 s
 Geometry Optimization Parameters
   NAtoms,    NIC,     NZ,  NCons,   NDum,   NFix, NCnnct, MaxDiis
       26     181       0       0       0       0       0       0

 Cartesian Hessian Update
 Hessian updated using BFGS update


** GEOMETRY OPTIMIZATION IN DELOCALIZED INTERNAL COORDINATES **
   Searching for a Minimum

   Optimization Cycle:   2

                       Coordinates (Angstroms)
     ATOM                X               Y               Z
      1  C        -0.6813178416   -1.8974337545    0.0061846335
      2  C        -1.6321978754   -0.7537212844    0.0778252455
      3  C        -1.3870135999    0.3941721581    0.8825035332
      4  C        -2.3369558761    1.4352241915    0.9584025785
      5  C        -3.5538177139    1.3485493711    0.2407371617
      6  C        -3.8181472211    0.2043289421   -0.5469352308
      7  C        -2.8695511104   -0.8393921476   -0.6184535624
      8  C         0.6849569925   -1.8952438643    0.0004181959
      9  C         1.6331173152   -0.7499054974   -0.0757815016
     10  C         1.3756968794    0.4065831957   -0.8643452451
     11  C         2.3240162684    1.4488683102   -0.9429005706
     12  C         3.5513979562    1.3554234701   -0.2441821148
     13  C         3.8280121509    0.2027862718    0.5266666746
     14  C         2.8811411437   -0.8423075439    0.6005545491
     15  H        -1.1665478032   -2.8794173467   -0.0221918902
     16  H        -0.4611236960    0.4632585964    1.4558064887
     17  H        -2.1341935772    2.3060130346    1.5845432776
     18  H        -4.2873006534    2.1539096254    0.3034319695
     19  H        -4.7579150989    0.1229446496   -1.0959378317
     20  H        -3.0821221738   -1.7246142427   -1.2241303010
     21  H         1.1727680564   -2.8757947039    0.0341399562
     22  H         0.4419856934    0.4816227253   -1.4238059606
     23  H         2.1117098257    2.3261642236   -1.5566697690
     24  H         4.2831767195    2.1621969671   -0.3086959515
     25  H         4.7759918711    0.1157195485    1.0604780982
     26  H         3.1033872147   -1.7340464832    1.1930584214
   Point Group: c1    Number of degrees of freedom:    72


   Energy is   -538.161650903

 Hessian updated using BFGS update

 72 Hessian modes will be used to form the next step
  Hessian Eigenvalues:
     0.012573    0.012636    0.019497    0.019510    0.021545    0.021572
     0.022642    0.022654    0.023116    0.023123    0.023242    0.023248
     0.023523    0.023524    0.023536    0.023537    0.023637    0.023640
     0.023724    0.023730    0.023758    0.023760    0.030246    0.159961
     0.159985    0.159986    0.159989    0.159990    0.159992    0.159993
     0.159996    0.159997    0.159998    0.159998    0.160133    0.213741
     0.219977    0.219979    0.219998    0.220001    0.220007    0.234459
     0.234577    0.248808    0.249511    0.352496    0.353759    0.358482
     0.358848    0.360064    0.360267    0.361024    0.361092    0.361178
     0.361304    0.361392    0.362452    0.363311    0.363733    0.422147
     0.422624    0.425000    0.425031    0.460990    0.461102    0.464671
     0.471342    0.471674    0.471728    0.475676    0.512738    0.582902

 Minimum search - taking simple RFO step
 Searching for Lamda that Minimizes Along All modes
 Value Taken    Lamda =  -0.00049363
 Step Taken.  Stepsize is  0.122985

                             Maximum     Tolerance    Cnvgd?
         Gradient           0.007587      0.000300      NO
         Displacement       0.067118      0.001200      NO
         Energy change     -0.007664      0.000001      NO


 New Cartesian Coordinates Obtained by Inverse Iteration

 Displacement from previous Coordinates is:  0.747455
 ----------------------------------------------------------------
             Standard Nuclear Orientation (Angstroms)
    I     Atom           X                Y                Z
 ----------------------------------------------------------------
    1      C      -0.6804982973    -1.9291418269     0.0082214170
    2      C      -1.6099188491    -0.7701303533     0.0835127483
    3      C      -1.3548843273     0.3513570463     0.9192331062
    4      C      -2.2799005227     1.4126197523     0.9974073323
    5      C      -3.4822007303     1.3697063594     0.2541037279
    6      C      -3.7557507603     0.2515779802    -0.5648770208
    7      C      -2.8311143374    -0.8114436423    -0.6414156239
    8      C       0.6840290306    -1.9269022631    -0.0048835197
    9      C       1.6106371263    -0.7661433048    -0.0826222676
   10      C       1.3452126527     0.3630028139    -0.9048491906
   11      C       2.2687517961     1.4254250079    -0.9840088700
   12      C       3.4798541368     1.3765385561    -0.2554606454
   13      C       3.7638243209     0.2508967030     0.5494885247
   14      C       2.8407483470    -0.8133545631     0.6269028813
   15      H      -1.1715439052    -2.9084403983    -0.0141766330
   16      H      -0.4388962327     0.3839114935     1.5119261076
   17      H      -2.0707561395     2.2644137020     1.6471754000
   18      H      -4.1979175164     2.1908173762     0.3196220786
   19      H      -4.6853983644     0.2050783224    -1.1349150845
   20      H      -3.0491265086    -1.6765790973    -1.2738354349
   21      H       1.1779483665    -2.9047124672     0.0207331522
   22      H       0.4229755840     0.4005818191    -1.4872935992
   23      H       2.0515346346     2.2829646175    -1.6234941211
   24      H       4.1941356513     2.1988412930    -0.3217032328
   25      H       4.7003739865     0.1993910591     1.1076762502
   26      H       3.0670347039    -1.6843875727     1.2482533716
 ----------------------------------------------------------------
 Molecular Point Group                 C1    NOp =  1
 Largest Abelian Subgroup              C1    NOp =  1
 Nuclear Repulsion Energy =         759.64729496 hartrees
 There are       48 alpha and       48 beta electrons
 Applying Cartesian multipole field
    Component          Value
    ---------          -----
     (2,0,0)        1.00000E-11
     (0,2,0)        2.00000E-11
     (0,0,2)       -3.00000E-10
 Nucleus-field energy     =    -0.0000000165 hartrees
 Requested basis set is 6-31G
 There are 66 shells and 150 basis functions
 Requested basis set is rimp2-cc-pVDZ
 There are 324 shells and 1020 basis functions
 A cutoff of  1.0D-11 yielded   1723 shell pairs
 There are      9916 function pairs
 Smallest overlap matrix eigenvalue = 7.10E-04
 Guess MOs from SCF MO coefficient file

 -----------------------------------------------------------------------
  General SCF calculation program by
  Eric Jon Sundstrom, Paul Horn, Yuezhi Mao, Dmitri Zuev, Alec White,
  David Stuck, Shaama M.S., Shane Yost, Joonho Lee, David Small,
  Daniel Levine, Susi Lehtola, Hugh Burton, Evgeny Epifanovsky,
  Bang C. Huynh
 -----------------------------------------------------------------------
 Hartree-Fock
 using 6 threads for integral computing
 -------------------------------------------------------
 OpenMP Integral computing Module                
 Release: version 1.0, May 2013, Q-Chem Inc. Pittsburgh 
 -------------------------------------------------------
 A restricted SCF calculation will be
 performed using DIIS
 SCF converges when DIIS error is below 1.0e-08
 ---------------------------------------
  Cycle       Energy         DIIS error
 ---------------------------------------
    1    -536.9288126126      9.37e-04  
    2    -536.9339729587      2.95e-04  
    3    -536.9347140395      5.55e-05  
    4    -536.9347471573      1.88e-05  
    5    -536.9347495684      7.15e-06  
    6    -536.9347499062      2.05e-06  
    7    -536.9347499303      6.98e-07  
    8    -536.9347499338      2.03e-07  
    9    -536.9347499335      8.32e-08  
   10    -536.9347499337      3.62e-08  
   11    -536.9347499343      2.06e-08  
   12    -536.9347499348      5.61e-09  Convergence criterion met
 ---------------------------------------
 SCF time:   CPU 12.24s  wall 5.00s 
 SCF   energy in the final basis set =     -536.9347499348
 Total energy in the final basis set =     -536.9347499348


 --------------------------------------------------------------
  Generalized many-body perturbation theory program
  by Joonho Lee, Fazle Rob, Xintian Feng, Evgeny Epifanovsky

 No regularization used 
 (reg. param. = 0.0000e+00)
         1      0.00050921     MINRES Iteration
         2      0.00009477     MINRES Iteration
         3      0.00003016     MINRES Iteration
         4      0.00000773     MINRES Iteration
         5      0.00000297     MINRES Iteration
         6      0.00000127     MINRES Iteration
         7      0.00000048     MINRES Done

 In RI-MP2 calculation: 
 # of frozen core orbitals: 14

 Components of the RIMP2 correlation energy:
        aaaa    correlation energy =        -0.1577033294 a.u.
        abab    correlation energy =        -0.9118888561 a.u.
        bbbb    correlation energy =        -0.1577033294 a.u.
        non-Brillouin singles      =        -0.0000000000 a.u.
        total same-spin energy     =        -0.3154066588 a.u.
        total opposite-spin energy =        -0.9118888561 a.u.

 Total  RIMP2   correlation energy =        -1.2272955149 a.u.
        RIMP2         total energy =      -538.1620454497 a.u.

 RI-MP2 Gradient Time:  CPU 135.30 s  wall 47.25 s

 --------------------------------------------------------------

                    Orbital Energies (a.u.)
 --------------------------------------------------------------

 Alpha MOs
 -- Occupied --
-11.2552 -11.2552 -11.2496 -11.2482 -11.2451 -11.2450 -11.2442 -11.2442
-11.2436 -11.2436 -11.2429 -11.2429 -11.2415 -11.2414  -1.1531  -1.1425
 -1.0744  -1.0217  -1.0090  -1.0065  -0.9698  -0.8570  -0.8238  -0.8167
 -0.8081  -0.7498  -0.6999  -0.6748  -0.6503  -0.6382  -0.6230  -0.6107
 -0.5920  -0.5811  -0.5808  -0.5735  -0.5393  -0.5003  -0.4991  -0.4926
 -0.4870  -0.4775  -0.4693  -0.4002  -0.3404  -0.3329  -0.3261  -0.2828
 -- Virtual --
  0.0906   0.1325   0.1500   0.1515   0.2189   0.2372   0.2425   0.2602
  0.2851   0.2962   0.3071   0.3073   0.3182   0.3308   0.3335   0.3367
  0.3469   0.3653   0.3803   0.4133   0.4436   0.4696   0.4698   0.4832
  0.4864   0.4958   0.5005   0.5220   0.5907   0.6224   0.6541   0.6966
  0.7288   0.7443   0.7536   0.7656   0.7714   0.7825   0.7922   0.8005
  0.8152   0.8194   0.8273   0.8307   0.8493   0.8514   0.8571   0.8612
  0.8723   0.8791   0.8870   0.8911   0.8915   0.8980   0.9087   0.9250
  0.9298   0.9507   0.9740   0.9920   1.0442   1.0508   1.1134   1.1203
  1.1212   1.1313   1.1317   1.1391   1.1418   1.1564   1.1654   1.1709
  1.1793   1.2031   1.2279   1.2360   1.2370   1.2640   1.2653   1.2912
  1.2998   1.3228   1.3245   1.3458   1.3612   1.4020   1.4129   1.4211
  1.4324   1.4607   1.4807   1.5063   1.5262   1.5527   1.5902   1.6940
  1.7039   1.7328   1.7560   1.7742   2.1534   2.1642
 --------------------------------------------------------------

          Ground-State Mulliken Net Atomic Charges

     Atom                 Charge (a.u.)
  ----------------------------------------
      1 C                    -0.144597
      2 C                    -0.013924
      3 C                    -0.143286
      4 C                    -0.158139
      5 C                    -0.148877
      6 C                    -0.155240
      7 C                    -0.163634
      8 C                    -0.143717
      9 C                    -0.012313
     10 C                    -0.143700
     11 C                    -0.158231
     12 C                    -0.148843
     13 C                    -0.155196
     14 C                    -0.164251
     15 H                     0.143167
     16 H                     0.170117
     17 H                     0.153804
     18 H                     0.152384
     19 H                     0.152869
     20 H                     0.154733
     21 H                     0.142870
     22 H                     0.170398
     23 H                     0.153775
     24 H                     0.152365
     25 H                     0.152855
     26 H                     0.154611
  ----------------------------------------
  Sum of atomic charges =     0.000000

 -----------------------------------------------------------------
                    Cartesian Multipole Moments
 -----------------------------------------------------------------
    Charge (ESU x 10^10)
                -0.0000
    Dipole Moment (Debye)
         X      -0.0013      Y       0.1608      Z       0.0003
       Tot       0.1608
    Quadrupole Moments (Debye-Ang)
        XX     -77.5812     XY      -0.0471     YY     -77.8319
        XZ       4.5625     YZ       0.0052     ZZ     -85.1447
    Octopole Moments (Debye-Ang^2)
       XXX       0.4454    XXY      14.0116    XYY       0.0940
       YYY      -0.6687    XXZ      -0.1164    XYZ     -11.7159
       YYZ      -0.0184    XZZ      -0.2760    YZZ       4.4242
       ZZZ       0.0421
    Hexadecapole Moments (Debye-Ang^3)
      XXXX   -3200.8793   XXXY      -1.3733   XXYY    -651.1248
      XYYY      -0.2525   YYYY    -803.8063   XXXZ     116.9512
      XXYZ       0.0288   XYYZ      -7.8230   YYYZ      -0.1334
      XXZZ    -630.1321   XYZZ      -0.2428   YYZZ    -192.2329
      XZZZ      10.9098   YZZZ       0.3938   ZZZZ    -332.8317
 -----------------------------------------------------------------
 DrvMan is completing analytic gradient of the MP2 energy
 MP2 relaxed dipole moment
            1
    1  -0.0005217
    2   0.0632646
    3   0.0001301
	Magnitude:	 0.063 au	 0.161 Debye
 MP2 energy read as -538.162045
 Full Analytical Gradient of MP2 Energy (in au.)
             1             2             3             4             5
    1   -0.00013970    0.00047558    0.00025086   -0.00000163   -0.00017115
    2    0.00090623   -0.00093213    0.00027121    0.00013334    0.00033056
    3   -0.00082326    0.00062143   -0.00041302    0.00022047   -0.00000231
             6             7             8             9            10
    1   -0.00019539   -0.00036758    0.00016968   -0.00052196   -0.00026235
    2   -0.00025854   -0.00034617    0.00096092   -0.00096893    0.00031391
    3   -0.00008413   -0.00003197    0.00081035   -0.00065627    0.00044344
            11            12            13            14            15
    1   -0.00002794    0.00019231    0.00019009    0.00038489   -0.00021565
    2    0.00012681    0.00031638   -0.00024039   -0.00037319   -0.00027561
    3   -0.00021334    0.00000905    0.00008351   -0.00001073   -0.00051743
            16            17            18            19            20
    1    0.00012025    0.00007148   -0.00010137   -0.00009089   -0.00007415
    2    0.00012222    0.00011192    0.00009639   -0.00001474   -0.00016289
    3    0.00014161    0.00009707    0.00002301   -0.00011272   -0.00008603
            21            22            23            24            25
    1    0.00021533   -0.00010213   -0.00007012    0.00009716    0.00009366
    2   -0.00027459    0.00013242    0.00011035    0.00010086   -0.00002115
    3    0.00057123   -0.00014127   -0.00009857   -0.00002058    0.00010948
            26
    1    0.00008071
    2   -0.00016520
    3    0.00008098
 Gradient time:  CPU 0.08 s  wall 0.17 s
 Geometry Optimization Parameters
   NAtoms,    NIC,     NZ,  NCons,   NDum,   NFix, NCnnct, MaxDiis
       26     181       0       0       0       0       0       0

 Cartesian Hessian Update
 Hessian updated using BFGS update


** GEOMETRY OPTIMIZATION IN DELOCALIZED INTERNAL COORDINATES **
   Searching for a Minimum

   Optimization Cycle:   3

                       Coordinates (Angstroms)
     ATOM                X               Y               Z
      1  C        -0.6804982973   -1.9291418269    0.0082214170
      2  C        -1.6099188491   -0.7701303533    0.0835127483
      3  C        -1.3548843273    0.3513570463    0.9192331062
      4  C        -2.2799005227    1.4126197523    0.9974073323
      5  C        -3.4822007303    1.3697063594    0.2541037279
      6  C        -3.7557507603    0.2515779802   -0.5648770208
      7  C        -2.8311143374   -0.8114436423   -0.6414156239
      8  C         0.6840290306   -1.9269022631   -0.0048835197
      9  C         1.6106371263   -0.7661433048   -0.0826222676
     10  C         1.3452126527    0.3630028139   -0.9048491906
     11  C         2.2687517961    1.4254250079   -0.9840088700
     12  C         3.4798541368    1.3765385561   -0.2554606454
     13  C         3.7638243209    0.2508967030    0.5494885247
     14  C         2.8407483470   -0.8133545631    0.6269028813
     15  H        -1.1715439052   -2.9084403983   -0.0141766330
     16  H        -0.4388962327    0.3839114935    1.5119261076
     17  H        -2.0707561395    2.2644137020    1.6471754000
     18  H        -4.1979175164    2.1908173762    0.3196220786
     19  H        -4.6853983644    0.2050783224   -1.1349150845
     20  H        -3.0491265086   -1.6765790973   -1.2738354349
     21  H         1.1779483665   -2.9047124672    0.0207331522
     22  H         0.4229755840    0.4005818191   -1.4872935992
     23  H         2.0515346346    2.2829646175   -1.6234941211
     24  H         4.1941356513    2.1988412930   -0.3217032328
     25  H         4.7003739865    0.1993910591    1.1076762502
     26  H         3.0670347039   -1.6843875727    1.2482533716
   Point Group: c1    Number of degrees of freedom:    72


   Energy is   -538.162045450

 Hessian updated using BFGS update

 72 Hessian modes will be used to form the next step
  Hessian Eigenvalues:
     0.005015    0.012606    0.019498    0.019516    0.021549    0.021582
     0.022647    0.022690    0.023116    0.023123    0.023227    0.023246
     0.023522    0.023524    0.023537    0.023600    0.023638    0.023664
     0.023726    0.023734    0.023758    0.023760    0.030896    0.159289
     0.159985    0.159986    0.159988    0.159990    0.159992    0.159993
     0.159995    0.159996    0.159997    0.159998    0.161343    0.189608
     0.219978    0.219985    0.219999    0.220005    0.220028    0.234577
     0.235555    0.248219    0.249528    0.352554    0.358475    0.358670
     0.360064    0.360209    0.361024    0.361083    0.361177    0.361281
     0.361391    0.361842    0.363276    0.363460    0.369998    0.422147
     0.422824    0.425006    0.425041    0.460968    0.461090    0.464671
     0.470586    0.471667    0.471719    0.475676    0.529836    0.611825

 Minimum search - taking simple RFO step
 Searching for Lamda that Minimizes Along All modes
 Value Taken    Lamda =  -0.00071218
 Calculated Step too Large.  Step scaled by  0.886415
 Step Taken.  Stepsize is  0.300000

                             Maximum     Tolerance    Cnvgd?
         Gradient           0.003302      0.000300      NO
         Displacement       0.156017      0.001200      NO
         Energy change     -0.000395      0.000001      NO


 New Cartesian Coordinates Obtained by Inverse Iteration

 Displacement from previous Coordinates is:  1.573773
 ----------------------------------------------------------------
             Standard Nuclear Orientation (Angstroms)
    I     Atom           X                Y                Z
 ----------------------------------------------------------------
    1      C      -0.6796945366    -1.9784390618     0.0143823861
    2      C      -1.5784117429    -0.7956728534     0.1049424108
    3      C      -1.3322071477     0.2577043389     1.0251166583
    4      C      -2.2165400057     1.3503781940     1.1157050523
    5      C      -3.3713434910     1.4031263034     0.3034715245
    6      C      -3.6370247872     0.3519957629    -0.5998487463
    7      C      -2.7521209329    -0.7421331078    -0.6903312796
    8      C       0.6830889519    -1.9762912649    -0.0184052541
    9      C       1.5790328034    -0.7914750510    -0.1068045085
   10      C       1.3272547557     0.2676148325    -1.0189368650
   11      C       2.2102078196     1.3616047251    -1.1069158407
   12      C       3.3690525208     1.4103514129    -0.3002168562
   13      C       3.6403583110     0.3535791571     0.5948412575
   14      C       2.7568742316    -0.7418287787     0.6827178118
   15      H      -1.1810083898    -2.9517197095    -0.0010174733
   16      H      -0.4522331315     0.2123175455     1.6690052569
   17      H      -2.0155966551     2.1509469915     1.8295582394
   18      H      -4.0570510675     2.2483873377     0.3790155753
   19      H      -4.5318286938     0.3804019956    -1.2239119933
   20      H      -2.9616183905    -1.5549255211    -1.3908626459
   21      H       1.1873475784    -2.9481049116    -0.0037218324
   22      H       0.4448267970     0.2253097371    -1.6596205879
   23      H       2.0049374536     2.1664552705    -1.8147072313
   24      H       4.0536193110     2.2567019553    -0.3738281070
   25      H       4.5383893644     0.3786912077     1.2143884039
   26      H       2.9708429203    -1.5590880947     1.3767054991
 ----------------------------------------------------------------
 Molecular Point Group                 C1    NOp =  1
 Largest Abelian Subgroup              C1    NOp =  1
 Nuclear Repulsion Energy =         763.10981584 hartrees
 There are       48 alpha and       48 beta electrons
 Applying Cartesian multipole field
    Component          Value
    ---------          -----
     (2,0,0)        1.00000E-11
     (0,2,0)        2.00000E-11
     (0,0,2)       -3.00000E-10
 Nucleus-field energy     =    -0.0000000295 hartrees
 Requested basis set is 6-31G
 There are 66 shells and 150 basis functions
 Requested basis set is rimp2-cc-pVDZ
 There are 324 shells and 1020 basis functions
 A cutoff of  1.0D-11 yielded   1739 shell pairs
 There are      9986 function pairs
 Smallest overlap matrix eigenvalue = 6.83E-04
 Guess MOs from SCF MO coefficient file

 -----------------------------------------------------------------------
  General SCF calculation program by
  Eric Jon Sundstrom, Paul Horn, Yuezhi Mao, Dmitri Zuev, Alec White,
  David Stuck, Shaama M.S., Shane Yost, Joonho Lee, David Small,
  Daniel Levine, Susi Lehtola, Hugh Burton, Evgeny Epifanovsky,
  Bang C. Huynh
 -----------------------------------------------------------------------
 Hartree-Fock
 using 6 threads for integral computing
 -------------------------------------------------------
 OpenMP Integral computing Module                
 Release: version 1.0, May 2013, Q-Chem Inc. Pittsburgh 
 -------------------------------------------------------
 A restricted SCF calculation will be
 performed using DIIS
 SCF converges when DIIS error is below 1.0e-08
 ---------------------------------------
  Cycle       Energy         DIIS error
 ---------------------------------------
    1    -536.9002695834      2.21e-03  
    2    -536.9306339828      7.24e-04  
    3    -536.9353258381      1.34e-04  
    4    -536.9355309367      3.44e-05  
    5    -536.9355405215      1.48e-05  
    6    -536.9355417595      3.75e-06  
    7    -536.9355418525      1.42e-06  
    8    -536.9355418666      3.83e-07  
    9    -536.9355418676      1.75e-07  
   10    -536.9355418670      8.30e-08  
   11    -536.9355418671      3.88e-08  
   12    -536.9355418675      1.00e-08  
   13    -536.9355418679      3.71e-09  Convergence criterion met
 ---------------------------------------
 SCF time:   CPU 13.54s  wall 5.00s 
 SCF   energy in the final basis set =     -536.9355418679
 Total energy in the final basis set =     -536.9355418679


 --------------------------------------------------------------
  Generalized many-body perturbation theory program
  by Joonho Lee, Fazle Rob, Xintian Feng, Evgeny Epifanovsky

 No regularization used 
 (reg. param. = 0.0000e+00)
         1      0.00050610     MINRES Iteration
         2      0.00009479     MINRES Iteration
         3      0.00003021     MINRES Iteration
         4      0.00000728     MINRES Iteration
         5      0.00000257     MINRES Iteration
         6      0.00000099     MINRES Done

 In RI-MP2 calculation: 
 # of frozen core orbitals: 14

 Components of the RIMP2 correlation energy:
        aaaa    correlation energy =        -0.1576380867 a.u.
        abab    correlation energy =        -0.9115154301 a.u.
        bbbb    correlation energy =        -0.1576380867 a.u.
        non-Brillouin singles      =        -0.0000000000 a.u.
        total same-spin energy     =        -0.3152761734 a.u.
        total opposite-spin energy =        -0.9115154301 a.u.

 Total  RIMP2   correlation energy =        -1.2267916035 a.u.
        RIMP2         total energy =      -538.1623334714 a.u.

 RI-MP2 Gradient Time:  CPU 130.24 s  wall 45.44 s

 --------------------------------------------------------------

                    Orbital Energies (a.u.)
 --------------------------------------------------------------

 Alpha MOs
 -- Occupied --
-11.2539 -11.2539 -11.2490 -11.2476 -11.2440 -11.2440 -11.2430 -11.2430
-11.2426 -11.2425 -11.2418 -11.2418 -11.2405 -11.2405  -1.1535  -1.1425
 -1.0750  -1.0210  -1.0083  -1.0067  -0.9694  -0.8558  -0.8222  -0.8173
 -0.8074  -0.7497  -0.6995  -0.6752  -0.6498  -0.6361  -0.6218  -0.6124
 -0.5936  -0.5807  -0.5804  -0.5749  -0.5405  -0.4992  -0.4964  -0.4915
 -0.4865  -0.4785  -0.4688  -0.3952  -0.3400  -0.3311  -0.3262  -0.2863
 -- Virtual --
  0.0968   0.1345   0.1469   0.1526   0.2122   0.2384   0.2433   0.2630
  0.2864   0.2960   0.3065   0.3085   0.3188   0.3306   0.3339   0.3392
  0.3424   0.3620   0.3805   0.4137   0.4439   0.4714   0.4721   0.4839
  0.4865   0.4958   0.4984   0.5241   0.5862   0.6220   0.6595   0.6901
  0.7255   0.7418   0.7497   0.7681   0.7729   0.7831   0.7857   0.7956
  0.8117   0.8221   0.8321   0.8359   0.8516   0.8537   0.8569   0.8617
  0.8741   0.8789   0.8879   0.8913   0.8957   0.9002   0.9102   0.9264
  0.9314   0.9501   0.9663   0.9901   1.0252   1.0716   1.1076   1.1187
  1.1218   1.1319   1.1329   1.1365   1.1403   1.1542   1.1642   1.1660
  1.1805   1.1987   1.2235   1.2341   1.2348   1.2635   1.2665   1.2879
  1.2996   1.3201   1.3272   1.3514   1.3683   1.4047   1.4170   1.4187
  1.4304   1.4557   1.4669   1.5139   1.5160   1.5367   1.5561   1.6954
  1.7101   1.7282   1.7592   1.7703   2.1319   2.1835
 --------------------------------------------------------------

          Ground-State Mulliken Net Atomic Charges

     Atom                 Charge (a.u.)
  ----------------------------------------
      1 C                    -0.143184
      2 C                    -0.021935
      3 C                    -0.137717
      4 C                    -0.157711
      5 C                    -0.148872
      6 C                    -0.155697
      7 C                    -0.160451
      8 C                    -0.142783
      9 C                    -0.021256
     10 C                    -0.137844
     11 C                    -0.157777
     12 C                    -0.148856
     13 C                    -0.155661
     14 C                    -0.160732
     15 H                     0.145418
     16 H                     0.167260
     17 H                     0.153506
     18 H                     0.152108
     19 H                     0.152482
     20 H                     0.154528
     21 H                     0.145275
     22 H                     0.167350
     23 H                     0.153490
     24 H                     0.152106
     25 H                     0.152483
     26 H                     0.154469
  ----------------------------------------
  Sum of atomic charges =     0.000000

 -----------------------------------------------------------------
                    Cartesian Multipole Moments
 -----------------------------------------------------------------
    Charge (ESU x 10^10)
                 0.0000
    Dipole Moment (Debye)
         X       0.0001      Y       0.1406      Z       0.0001
       Tot       0.1406
    Quadrupole Moments (Debye-Ang)
        XX     -78.6265     XY      -0.0268     YY     -78.2259
        XZ       4.7565     YZ       0.0053     ZZ     -83.8335
    Octopole Moments (Debye-Ang^2)
       XXX       0.2004    XXY      16.4631    XYY       0.0854
       YYY      -0.5234    XXZ       0.0128    XYZ     -11.0667
       YYZ      -0.0339    XZZ      -0.1425    YZZ       5.3368
       ZZZ       0.0425
    Hexadecapole Moments (Debye-Ang^3)
      XXXX   -3063.9496   XXXY      -1.3821   XXYY    -621.2277
      XYYY      -0.6955   YYYY    -804.9441   XXXZ     126.2641
      XXYZ       0.0630   XYYZ      -5.2344   YYYZ      -0.2389
      XXZZ    -598.5163   XYZZ      -0.3997   YYZZ    -199.8696
      XZZZ      24.1918   YZZZ       0.0088   ZZZZ    -382.1357
 -----------------------------------------------------------------
 DrvMan is completing analytic gradient of the MP2 energy
 MP2 relaxed dipole moment
            1
    1   0.0000230
    2   0.0553236
    3   0.0000547
	Magnitude:	 0.055 au	 0.141 Debye
 MP2 energy read as -538.162333
 Full Analytical Gradient of MP2 Energy (in au.)
             1             2             3             4             5
    1   -0.00095933    0.00060524   -0.00087305    0.00015469    0.00031966
    2    0.00085016   -0.00013798    0.00049640   -0.00079520   -0.00070457
    3   -0.00047210    0.00030725   -0.00002047   -0.00053458   -0.00031612
             6             7             8             9            10
    1    0.00065455   -0.00003421    0.00095289   -0.00065814    0.00085694
    2    0.00011972    0.00034108    0.00094162   -0.00018126    0.00054904
    3    0.00062246    0.00060158    0.00046967   -0.00032769    0.00004771
            11            12            13            14            15
    1   -0.00015034   -0.00031538   -0.00065857    0.00004847    0.00019655
    2   -0.00081683   -0.00068832    0.00008817    0.00035634   -0.00009456
    3    0.00054499    0.00029173   -0.00060220   -0.00061726   -0.00039998
            16            17            18            19            20
    1   -0.00030308   -0.00002443   -0.00001596    0.00000305    0.00007359
    2   -0.00005531   -0.00004049   -0.00001921    0.00001266   -0.00000827
    3    0.00011715    0.00000499    0.00001918    0.00002905    0.00000030
            21            22            23            24            25
    1   -0.00016921    0.00033191    0.00001981    0.00001771   -0.00000315
    2   -0.00009370   -0.00005210   -0.00004063   -0.00002244    0.00001334
    3    0.00043207   -0.00014578   -0.00000804   -0.00001483   -0.00003155
            26
    1   -0.00007021
    2   -0.00001767
    3    0.00000250
 Gradient time:  CPU 0.08 s  wall 0.17 s
 Geometry Optimization Parameters
   NAtoms,    NIC,     NZ,  NCons,   NDum,   NFix, NCnnct, MaxDiis
       26     181       0       0       0       0       0       0

 Cartesian Hessian Update
 Hessian updated using BFGS update


** GEOMETRY OPTIMIZATION IN DELOCALIZED INTERNAL COORDINATES **
   Searching for a Minimum

   Optimization Cycle:   4

                       Coordinates (Angstroms)
     ATOM                X               Y               Z
      1  C        -0.6796945366   -1.9784390618    0.0143823861
      2  C        -1.5784117429   -0.7956728534    0.1049424108
      3  C        -1.3322071477    0.2577043389    1.0251166583
      4  C        -2.2165400057    1.3503781940    1.1157050523
      5  C        -3.3713434910    1.4031263034    0.3034715245
      6  C        -3.6370247872    0.3519957629   -0.5998487463
      7  C        -2.7521209329   -0.7421331078   -0.6903312796
      8  C         0.6830889519   -1.9762912649   -0.0184052541
      9  C         1.5790328034   -0.7914750510   -0.1068045085
     10  C         1.3272547557    0.2676148325   -1.0189368650
     11  C         2.2102078196    1.3616047251   -1.1069158407
     12  C         3.3690525208    1.4103514129   -0.3002168562
     13  C         3.6403583110    0.3535791571    0.5948412575
     14  C         2.7568742316   -0.7418287787    0.6827178118
     15  H        -1.1810083898   -2.9517197095   -0.0010174733
     16  H        -0.4522331315    0.2123175455    1.6690052569
     17  H        -2.0155966551    2.1509469915    1.8295582394
     18  H        -4.0570510675    2.2483873377    0.3790155753
     19  H        -4.5318286938    0.3804019956   -1.2239119933
     20  H        -2.9616183905   -1.5549255211   -1.3908626459
     21  H         1.1873475784   -2.9481049116   -0.0037218324
     22  H         0.4448267970    0.2253097371   -1.6596205879
     23  H         2.0049374536    2.1664552705   -1.8147072313
     24  H         4.0536193110    2.2567019553   -0.3738281070
     25  H         4.5383893644    0.3786912077    1.2143884039
     26  H         2.9708429203   -1.5590880947    1.3767054991
   Point Group: c1    Number of degrees of freedom:    72


   Energy is   -538.162333471

 Hessian updated using BFGS update

 72 Hessian modes will be used to form the next step
  Hessian Eigenvalues:
     0.005993    0.012610    0.019499    0.020076    0.021558    0.021681
     0.022647    0.022729    0.023119    0.023175    0.023245    0.023367
     0.023523    0.023528    0.023537    0.023599    0.023638    0.023669
     0.023727    0.023739    0.023759    0.023763    0.035724    0.158220
     0.159985    0.159986    0.159988    0.159990    0.159993    0.159995
     0.159996    0.159997    0.159998    0.160067    0.161507    0.176635
     0.219978    0.219999    0.220005    0.220016    0.220030    0.234577
     0.235568    0.247860    0.249527    0.352554    0.358480    0.358763
     0.360064    0.360220    0.361024    0.361083    0.361177    0.361274
     0.361391    0.361711    0.363303    0.363766    0.369486    0.422146
     0.422924    0.425007    0.425045    0.461030    0.461275    0.464670
     0.470683    0.471705    0.472208    0.475676    0.543204    0.619622

 Minimum search - taking simple RFO step
 Searching for Lamda that Minimizes Along All modes
 Value Taken    Lamda =  -0.00015871
 Step Taken.  Stepsize is  0.065840

                             Maximum     Tolerance    Cnvgd?
         Gradient           0.002589      0.000300      NO
         Displacement       0.036146      0.001200      NO
         Energy change     -0.000288      0.000001      NO


 New Cartesian Coordinates Obtained by Inverse Iteration

 Displacement from previous Coordinates is:  0.461133
 ----------------------------------------------------------------
             Standard Nuclear Orientation (Angstroms)
    I     Atom           X                Y                Z
 ----------------------------------------------------------------
    1      C      -0.6793040096    -2.0070932797     0.0205527933
    2      C      -1.5662486373    -0.8128579083     0.1052914990
    3      C      -1.2958638607     0.2454673611     1.0133750776
    4      C      -2.1601781117     1.3557950888     1.0974482618
    5      C      -3.3173790833     1.4218609435     0.2885901767
    6      C      -3.6046094555     0.3679938890    -0.6064090982
    7      C      -2.7398944781    -0.7437739786    -0.6898712019
    8      C       0.6828577084    -2.0053023387    -0.0268586590
    9      C       1.5672928841    -0.8090891848    -0.1080210676
   10      C       1.2927774644     0.2539689117    -1.0092984154
   11      C       2.1554358028     1.3658583524    -1.0897597849
   12      C       3.3149261021     1.4290536446    -0.2839785324
   13      C       3.6063133335     0.3705107410     0.6041656956
   14      C       2.7433022971    -0.7427996692     0.6839797968
   15      H      -1.1867768156    -2.9770952620     0.0174831677
   16      H      -0.4104646916     0.1918083662     1.6494892195
   17      H      -1.9407684679     2.1603261698     1.8013659047
   18      H      -3.9865460783     2.2808096331     0.3577429577
   19      H      -4.4999736052     0.4081185885    -1.2290589629
   20      H      -2.9654179348    -1.5575778256    -1.3841740917
   21      H       1.1927443584    -2.9740690691    -0.0262873926
   22      H       0.4058497563     0.2025999683    -1.6434615327
   23      H       1.9327706987     2.1740275266    -1.7884739389
   24      H       3.9827524144     2.2892609832    -0.3503570016
   25      H       4.5035142723     0.4083388669     1.2243071160
   26      H       2.9720419834    -1.5602521058     1.3729388676
 ----------------------------------------------------------------
 Molecular Point Group                 C1    NOp =  1
 Largest Abelian Subgroup              C1    NOp =  1
 Nuclear Repulsion Energy =         765.23420872 hartrees
 There are       48 alpha and       48 beta electrons
 Applying Cartesian multipole field
    Component          Value
    ---------          -----
     (2,0,0)        1.00000E-11
     (0,2,0)        2.00000E-11
     (0,0,2)       -3.00000E-10
 Nucleus-field energy     =    -0.0000000287 hartrees
 Requested basis set is 6-31G
 There are 66 shells and 150 basis functions
 Requested basis set is rimp2-cc-pVDZ
 There are 324 shells and 1020 basis functions
 A cutoff of  1.0D-11 yielded   1745 shell pairs
 There are     10106 function pairs
 Smallest overlap matrix eigenvalue = 6.84E-04
 Guess MOs from SCF MO coefficient file

 -----------------------------------------------------------------------
  General SCF calculation program by
  Eric Jon Sundstrom, Paul Horn, Yuezhi Mao, Dmitri Zuev, Alec White,
  David Stuck, Shaama M.S., Shane Yost, Joonho Lee, David Small,
  Daniel Levine, Susi Lehtola, Hugh Burton, Evgeny Epifanovsky,
  Bang C. Huynh
 -----------------------------------------------------------------------
 Hartree-Fock
 using 6 threads for integral computing
 -------------------------------------------------------
 OpenMP Integral computing Module                
 Release: version 1.0, May 2013, Q-Chem Inc. Pittsburgh 
 -------------------------------------------------------
 A restricted SCF calculation will be
 performed using DIIS
 SCF converges when DIIS error is below 1.0e-08
 ---------------------------------------
  Cycle       Energy         DIIS error
 ---------------------------------------
    1    -536.9330364417      5.02e-04  
    2    -536.9344794337      1.55e-04  
    3    -536.9346777569      2.92e-05  
    4    -536.9346864502      1.15e-05  
    5    -536.9346872928      4.20e-06  
    6    -536.9346874193      1.18e-06  
    7    -536.9346874277      3.89e-07  
    8    -536.9346874287      1.16e-07  
    9    -536.9346874287      4.80e-08  
   10    -536.9346874285      1.75e-08  
   11    -536.9346874285      7.68e-09  Convergence criterion met
 ---------------------------------------
 SCF time:   CPU 11.42s  wall 4.00s 
 SCF   energy in the final basis set =     -536.9346874285
 Total energy in the final basis set =     -536.9346874285


 --------------------------------------------------------------
  Generalized many-body perturbation theory program
  by Joonho Lee, Fazle Rob, Xintian Feng, Evgeny Epifanovsky

 No regularization used 
 (reg. param. = 0.0000e+00)
         1      0.00050633     MINRES Iteration
         2      0.00009527     MINRES Iteration
         3      0.00003070     MINRES Iteration
         4      0.00000751     MINRES Iteration
         5      0.00000275     MINRES Iteration
         6      0.00000112     MINRES Iteration
         7      0.00000044     MINRES Done

 In RI-MP2 calculation: 
 # of frozen core orbitals: 14

 Components of the RIMP2 correlation energy:
        aaaa    correlation energy =        -0.1577728270 a.u.
        abab    correlation energy =        -0.9121306287 a.u.
        bbbb    correlation energy =        -0.1577728270 a.u.
        non-Brillouin singles      =        -0.0000000000 a.u.
        total same-spin energy     =        -0.3155456540 a.u.
        total opposite-spin energy =        -0.9121306287 a.u.

 Total  RIMP2   correlation energy =        -1.2276762827 a.u.
        RIMP2         total energy =      -538.1623637112 a.u.

 RI-MP2 Gradient Time:  CPU 138.36 s  wall 48.33 s

 --------------------------------------------------------------

                    Orbital Energies (a.u.)
 --------------------------------------------------------------

 Alpha MOs
 -- Occupied --
-11.2539 -11.2539 -11.2492 -11.2478 -11.2442 -11.2442 -11.2432 -11.2432
-11.2427 -11.2427 -11.2418 -11.2418 -11.2403 -11.2403  -1.1532  -1.1418
 -1.0750  -1.0202  -1.0080  -1.0061  -0.9693  -0.8551  -0.8222  -0.8170
 -0.8069  -0.7497  -0.6992  -0.6751  -0.6497  -0.6360  -0.6216  -0.6123
 -0.5934  -0.5806  -0.5803  -0.5746  -0.5406  -0.4996  -0.4958  -0.4913
 -0.4864  -0.4782  -0.4683  -0.3947  -0.3404  -0.3310  -0.3254  -0.2862
 -- Virtual --
  0.0974   0.1339   0.1470   0.1530   0.2113   0.2386   0.2435   0.2635
  0.2867   0.2961   0.3065   0.3088   0.3186   0.3304   0.3339   0.3395
  0.3422   0.3611   0.3799   0.4122   0.4435   0.4711   0.4721   0.4838
  0.4862   0.4950   0.4980   0.5236   0.5851   0.6217   0.6620   0.6892
  0.7235   0.7421   0.7492   0.7673   0.7732   0.7835   0.7860   0.7954
  0.8119   0.8224   0.8322   0.8370   0.8514   0.8528   0.8565   0.8630
  0.8737   0.8784   0.8875   0.8917   0.8960   0.9012   0.9099   0.9253
  0.9320   0.9519   0.9640   0.9895   1.0281   1.0741   1.1078   1.1189
  1.1218   1.1319   1.1332   1.1364   1.1408   1.1536   1.1636   1.1665
  1.1817   1.1981   1.2235   1.2338   1.2341   1.2629   1.2677   1.2875
  1.3058   1.3197   1.3292   1.3501   1.3701   1.4074   1.4157   1.4196
  1.4283   1.4536   1.4736   1.5176   1.5237   1.5371   1.5609   1.6963
  1.7111   1.7266   1.7622   1.7738   2.1305   2.1866
 --------------------------------------------------------------

          Ground-State Mulliken Net Atomic Charges

     Atom                 Charge (a.u.)
  ----------------------------------------
      1 C                    -0.141853
      2 C                    -0.024978
      3 C                    -0.137650
      4 C                    -0.157509
      5 C                    -0.149038
      6 C                    -0.155741
      7 C                    -0.159774
      8 C                    -0.141628
      9 C                    -0.024587
     10 C                    -0.137746
     11 C                    -0.157547
     12 C                    -0.149032
     13 C                    -0.155722
     14 C                    -0.159920
     15 H                     0.146193
     16 H                     0.167956
     17 H                     0.153471
     18 H                     0.151928
     19 H                     0.152400
     20 H                     0.154446
     21 H                     0.146115
     22 H                     0.168021
     23 H                     0.153463
     24 H                     0.151924
     25 H                     0.152399
     26 H                     0.154409
  ----------------------------------------
  Sum of atomic charges =     0.000000

 -----------------------------------------------------------------
                    Cartesian Multipole Moments
 -----------------------------------------------------------------
    Charge (ESU x 10^10)
                -0.0000
    Dipole Moment (Debye)
         X      -0.0003      Y       0.1503      Z       0.0004
       Tot       0.1503
    Quadrupole Moments (Debye-Ang)
        XX     -78.8467     XY      -0.0208     YY     -78.0234
        XZ       4.8992     YZ       0.0119     ZZ     -83.9860
    Octopole Moments (Debye-Ang^2)
       XXX       0.0950    XXY      15.9875    XYY       0.0777
       YYY       0.2283    XXZ       0.0315    XYZ     -10.3834
       YYZ      -0.0355    XZZ      -0.1043    YZZ       5.3449
       ZZZ       0.0470
    Hexadecapole Moments (Debye-Ang^3)
      XXXX   -2996.8852   XXXY      -1.3139   XXYY    -610.8444
      XYYY      -0.7371   YYYY    -818.9687   XXXZ     118.3884
      XXYZ       0.0580   XYYZ      -7.3113   YYYZ      -0.3615
      XXZZ    -584.9548   XYZZ      -0.3940   YYZZ    -202.4745
      XZZZ      16.2735   YZZZ      -0.2319   ZZZZ    -377.6845
 -----------------------------------------------------------------
 DrvMan is completing analytic gradient of the MP2 energy
 MP2 relaxed dipole moment
            1
    1  -0.0001120
    2   0.0591400
    3   0.0001507
	Magnitude:	 0.059 au	 0.150 Debye
 MP2 energy read as -538.162364
 Full Analytical Gradient of MP2 Energy (in au.)
             1             2             3             4             5
    1   -0.00028489    0.00049791    0.00013980    0.00000373    0.00000830
    2    0.00011123   -0.00003711   -0.00007387   -0.00004415   -0.00016400
    3    0.00018754   -0.00022351   -0.00021035   -0.00015823    0.00004820
             6             7             8             9            10
    1    0.00011297   -0.00023860    0.00027948   -0.00053436   -0.00013978
    2    0.00002122    0.00027655    0.00016754   -0.00005953   -0.00006575
    3    0.00000593    0.00001346   -0.00018038    0.00018353    0.00024042
            11            12            13            14            15
    1    0.00001197   -0.00001415   -0.00011114    0.00025705    0.00009360
    2   -0.00005478   -0.00014758   -0.00000257    0.00028420   -0.00007577
    3    0.00015942   -0.00006011    0.00000451   -0.00001432    0.00014310
            16            17            18            19            20
    1    0.00017086   -0.00001161    0.00002622   -0.00002685    0.00008636
    2   -0.00008978    0.00000645    0.00000647    0.00000805    0.00004032
    3   -0.00006301   -0.00002403    0.00000518    0.00002261   -0.00002782
            21            22            23            24            25
    1   -0.00007629   -0.00017023    0.00000676   -0.00002586    0.00002684
    2   -0.00007449   -0.00009206    0.00000814    0.00000483    0.00000992
    3   -0.00013144    0.00005220    0.00002541   -0.00000362   -0.00002433
            26
    1   -0.00008809
    2    0.00003651
    3    0.00002964
 Gradient time:  CPU 0.08 s  wall 0.17 s
 Geometry Optimization Parameters
   NAtoms,    NIC,     NZ,  NCons,   NDum,   NFix, NCnnct, MaxDiis
       26     181       0       0       0       0       0       0

 Cartesian Hessian Update
 Hessian updated using BFGS update


** GEOMETRY OPTIMIZATION IN DELOCALIZED INTERNAL COORDINATES **
   Searching for a Minimum

   Optimization Cycle:   5

                       Coordinates (Angstroms)
     ATOM                X               Y               Z
[...]
 SCF converges when DIIS error is below 1.0e-08
 ---------------------------------------
  Cycle       Energy         DIIS error
 ---------------------------------------
    1    -536.9348974272      2.71e-05  
    2    -536.9349021267      9.03e-06  
    3    -536.9349028749      1.75e-06  
    4    -536.9349029077      6.35e-07  
    5    -536.9349029105      2.06e-07  
    6    -536.9349029102      8.27e-08  
    7    -536.9349029101      2.44e-08  
    8    -536.9349029104      9.13e-09  Convergence criterion met
 ---------------------------------------
 SCF time:   CPU 7.84s  wall 3.00s 
 SCF   energy in the final basis set =     -536.9349029104
 Total energy in the final basis set =     -536.9349029104


 --------------------------------------------------------------
  Generalized many-body perturbation theory program
  by Joonho Lee, Fazle Rob, Xintian Feng, Evgeny Epifanovsky

 No regularization used 
 (reg. param. = 0.0000e+00)
         1      0.00050679     MINRES Iteration
         2      0.00009502     MINRES Iteration
         3      0.00003043     MINRES Iteration
         4      0.00000739     MINRES Iteration
         5      0.00000265     MINRES Iteration
         6      0.00000106     MINRES Iteration
         7      0.00000041     MINRES Done

 In RI-MP2 calculation: 
 # of frozen core orbitals: 14

 Components of the RIMP2 correlation energy:
        aaaa    correlation energy =        -0.1577237820 a.u.
        abab    correlation energy =        -0.9120402393 a.u.
        bbbb    correlation energy =        -0.1577237820 a.u.
        non-Brillouin singles      =        -0.0000000000 a.u.
        total same-spin energy     =        -0.3154475640 a.u.
        total opposite-spin energy =        -0.9120402393 a.u.

 Total  RIMP2   correlation energy =        -1.2274878032 a.u.
        RIMP2         total energy =      -538.1623907136 a.u.

 RI-MP2 Gradient Time:  CPU 136.96 s  wall 47.85 s

 --------------------------------------------------------------

                    Orbital Energies (a.u.)
 --------------------------------------------------------------

 Alpha MOs
 -- Occupied --
-11.2542 -11.2541 -11.2493 -11.2479 -11.2443 -11.2443 -11.2433 -11.2433
-11.2428 -11.2428 -11.2420 -11.2420 -11.2406 -11.2406  -1.1530  -1.1419
 -1.0747  -1.0204  -1.0081  -1.0062  -0.9694  -0.8553  -0.8222  -0.8171
 -0.8071  -0.7497  -0.6992  -0.6751  -0.6496  -0.6361  -0.6217  -0.6122
 -0.5934  -0.5806  -0.5804  -0.5748  -0.5404  -0.4993  -0.4960  -0.4914
 -0.4865  -0.4783  -0.4683  -0.3950  -0.3400  -0.3311  -0.3257  -0.2864
 -- Virtual --
  0.0972   0.1340   0.1470   0.1526   0.2117   0.2384   0.2433   0.2632
  0.2865   0.2960   0.3065   0.3085   0.3186   0.3304   0.3337   0.3392
  0.3425   0.3613   0.3798   0.4123   0.4434   0.4710   0.4719   0.4836
  0.4861   0.4951   0.4980   0.5237   0.5858   0.6214   0.6606   0.6894
  0.7241   0.7424   0.7489   0.7675   0.7730   0.7834   0.7858   0.7956
  0.8119   0.8218   0.8320   0.8359   0.8512   0.8529   0.8567   0.8623
  0.8736   0.8786   0.8874   0.8914   0.8955   0.9006   0.9096   0.9256
  0.9314   0.9510   0.9648   0.9898   1.0275   1.0718   1.1077   1.1188
  1.1215   1.1318   1.1330   1.1366   1.1405   1.1537   1.1640   1.1663
  1.1812   1.1984   1.2237   1.2333   1.2339   1.2627   1.2668   1.2874
  1.3027   1.3195   1.3278   1.3502   1.3689   1.4058   1.4162   1.4194
  1.4287   1.4539   1.4710   1.5152   1.5200   1.5367   1.5587   1.6959
  1.7092   1.7274   1.7602   1.7722   2.1325   2.1838
 --------------------------------------------------------------

          Ground-State Mulliken Net Atomic Charges

     Atom                 Charge (a.u.)
  ----------------------------------------
      1 C                    -0.142297
      2 C                    -0.023119
      3 C                    -0.138158
      4 C                    -0.157573
      5 C                    -0.148948
      6 C                    -0.155644
      7 C                    -0.160288
      8 C                    -0.142086
      9 C                    -0.022789
     10 C                    -0.138247
     11 C                    -0.157598
     12 C                    -0.148943
     13 C                    -0.155632
     14 C                    -0.160408
     15 H                     0.145685
     16 H                     0.167738
     17 H                     0.153518
     18 H                     0.151996
     19 H                     0.152402
     20 H                     0.154552
     21 H                     0.145621
     22 H                     0.167790
     23 H                     0.153513
     24 H                     0.151992
     25 H                     0.152399
     26 H                     0.154523
  ----------------------------------------
  Sum of atomic charges =     0.000000

 -----------------------------------------------------------------
                    Cartesian Multipole Moments
 -----------------------------------------------------------------
    Charge (ESU x 10^10)
                 0.0000
    Dipole Moment (Debye)
         X      -0.0003      Y       0.1485      Z       0.0005
       Tot       0.1485
    Quadrupole Moments (Debye-Ang)
        XX     -78.7035     XY      -0.0194     YY     -78.0841
        XZ       4.8421     YZ       0.0127     ZZ     -83.9874
    Octopole Moments (Debye-Ang^2)
       XXX       0.0686    XXY      16.1006    XYY       0.0804
       YYY      -0.0558    XXZ       0.0376    XYZ     -10.6970
       YYZ      -0.0364    XZZ      -0.0993    YZZ       5.3290
       ZZZ       0.0483
    Hexadecapole Moments (Debye-Ang^3)
      XXXX   -3036.0376   XXXY      -1.3412   XXYY    -617.1803
      XYYY      -0.7695   YYYY    -813.3647   XXXZ     122.3865
      XXYZ       0.0620   XYYZ      -6.4398   YYYZ      -0.3885
      XXZZ    -592.8920   XYZZ      -0.4038   YYZZ    -201.1242
      XZZZ      19.6420   YZZZ      -0.2714   ZZZZ    -377.8044
 -----------------------------------------------------------------
 DrvMan is completing analytic gradient of the MP2 energy
 MP2 relaxed dipole moment
            1
    1  -0.0001228
    2   0.0584202
    3   0.0001818
	Magnitude:	 0.058 au	 0.148 Debye
 MP2 energy read as -538.162391
 Full Analytical Gradient of MP2 Energy (in au.)
             1             2             3             4             5
    1   -0.00006415    0.00001667   -0.00002161    0.00002727   -0.00001790
    2    0.00002332   -0.00003763    0.00002293   -0.00001124   -0.00001974
    3    0.00000488   -0.00004310    0.00002500   -0.00001094    0.00000351
             6             7             8             9            10
    1    0.00002731   -0.00001969    0.00006763   -0.00003570    0.00001673
    2    0.00001601    0.00001017    0.00004744   -0.00004609    0.00003111
    3   -0.00001005    0.00003062   -0.00000989    0.00002608   -0.00001201
            11            12            13            14            15
    1   -0.00002293    0.00001564   -0.00002804    0.00003083    0.00001824
    2   -0.00001460   -0.00001549    0.00000839    0.00000977   -0.00000679
    3    0.00001056   -0.00000449    0.00001179   -0.00003267   -0.00000078
            16            17            18            19            20
    1    0.00000431   -0.00000370    0.00000463   -0.00000429    0.00000883
    2   -0.00000391   -0.00000054    0.00000346   -0.00000736    0.00000281
    3   -0.00000172    0.00000024   -0.00000272    0.00000839   -0.00000954
            21            22            23            24            25
    1   -0.00001461    0.00000078    0.00000236   -0.00000423    0.00000436
    2   -0.00000703   -0.00000238   -0.00000023    0.00000306   -0.00000695
    3    0.00001502   -0.00000143    0.00000021    0.00000244   -0.00000864
            26
    1   -0.00000874
    2    0.00000150
    3    0.00000923
 Gradient time:  CPU 0.08 s  wall 0.18 s
 Geometry Optimization Parameters
   NAtoms,    NIC,     NZ,  NCons,   NDum,   NFix, NCnnct, MaxDiis
       26     181       0       0       0       0       0       0

 Cartesian Hessian Update
 Hessian updated using BFGS update


** GEOMETRY OPTIMIZATION IN DELOCALIZED INTERNAL COORDINATES **
   Searching for a Minimum

   Optimization Cycle:   7

                       Coordinates (Angstroms)
     ATOM                X               Y               Z
      1  C        -0.6793135154   -1.9928719945    0.0196554818
      2  C        -1.5744462288   -0.8045901462    0.1066326866
      3  C        -1.3138002371    0.2562626905    1.0149349236
      4  C        -2.1895890023    1.3576326770    1.1007304823
      5  C        -3.3480693812    1.4125457812    0.2927246177
      6  C        -3.6261330887    0.3553148437   -0.6014481441
      7  C        -2.7503424869   -0.7477181444   -0.6861519157
      8  C         0.6829345126   -1.9912515593   -0.0264177847
      9  C         1.5756670787   -0.8009766607   -0.1095138180
     10  C         1.3111445089    0.2644897573   -1.0112841001
     11  C         2.1851010995    1.3676063037   -1.0932170056
     12  C         3.3455185744    1.4198778259   -0.2878245096
     13  C         3.6274807534    0.3581118873    0.5997331030
     14  C         2.7535549995   -0.7466633462    0.6805479613
     15  H        -1.1844252987   -2.9641875785    0.0136462673
     16  H        -0.4279899754    0.2116713767    1.6510670818
     17  H        -1.9775828311    2.1637939108    1.8050655047
     18  H        -4.0261074309    2.2644326104    0.3629298347
     19  H        -4.5226399221    0.3862286974   -1.2229546073
     20  H        -2.9701112537   -1.5646451659   -1.3786817667
     21  H         1.1901919357   -2.9614736096   -0.0231357108
     22  H         0.4240064134    0.2220377535   -1.6456847924
     23  H         1.9700933956    2.1772981168   -1.7925763040
     24  H         4.0221043224    2.2731564990   -0.3550745951
     25  H         4.5255386548    0.3869254597    1.2190969597
     26  H         2.9763682497   -1.5671195729    1.3679210038
   Point Group: c1    Number of degrees of freedom:    72


   Energy is   -538.162390714

 Hessian updated using BFGS update

 71 Hessian modes will be used to form the next step
  Hessian Eigenvalues:
     0.005981    0.011803    0.019400    0.019506    0.020785    0.021654
     0.022254    0.022648    0.022746    0.023122    0.023245    0.023284
     0.023475    0.023524    0.023537    0.023553    0.023594    0.023639
     0.023672    0.023727    0.023759    0.024009    0.036698    0.150505
     0.159939    0.159976    0.159986    0.159988    0.159993    0.159994
     0.159996    0.159998    0.160063    0.160230    0.160370    0.218909
     0.219694    0.219979    0.220254    0.233616    0.234749    0.241666
     0.249739    0.274728    0.350082    0.353185    0.358496    0.359938
     0.360072    0.360279    0.361024    0.361132    0.361178    0.361292
     0.361391    0.361779    0.363315    0.365604    0.422099    0.423673
     0.425015    0.426466    0.460970    0.463802    0.464621    0.468146
     0.471680    0.472545    0.475668    0.527933    0.611393

 Minimum search - taking simple RFO step
 Searching for Lamda that Minimizes Along All modes
 Value Taken    Lamda =  -0.00000015
 Step Taken.  Stepsize is  0.003268

                             Maximum     Tolerance    Cnvgd?
         Gradient           0.000042      0.000300     YES
         Displacement       0.001403      0.001200      NO
         Energy change     -0.000000      0.000001     YES

 Final energy is   -538.16239071363736     


 ******************************
 **  OPTIMIZATION CONVERGED  **
 ******************************

                       Coordinates (Angstroms)
     ATOM                X               Y               Z
      1  C        -0.6793135154   -1.9928719945    0.0196554818
      2  C        -1.5744462288   -0.8045901462    0.1066326866
      3  C        -1.3138002371    0.2562626905    1.0149349236
      4  C        -2.1895890023    1.3576326770    1.1007304823
      5  C        -3.3480693812    1.4125457812    0.2927246177
      6  C        -3.6261330887    0.3553148437   -0.6014481441
      7  C        -2.7503424869   -0.7477181444   -0.6861519157
      8  C         0.6829345126   -1.9912515593   -0.0264177847
      9  C         1.5756670787   -0.8009766607   -0.1095138180
     10  C         1.3111445089    0.2644897573   -1.0112841001
     11  C         2.1851010995    1.3676063037   -1.0932170056
     12  C         3.3455185744    1.4198778259   -0.2878245096
     13  C         3.6274807534    0.3581118873    0.5997331030
     14  C         2.7535549995   -0.7466633462    0.6805479613
     15  H        -1.1844252987   -2.9641875785    0.0136462673
     16  H        -0.4279899754    0.2116713767    1.6510670818
     17  H        -1.9775828311    2.1637939108    1.8050655047
     18  H        -4.0261074309    2.2644326104    0.3629298347
     19  H        -4.5226399221    0.3862286974   -1.2229546073
     20  H        -2.9701112537   -1.5646451659   -1.3786817667
     21  H         1.1901919357   -2.9614736096   -0.0231357108
     22  H         0.4240064134    0.2220377535   -1.6456847924
     23  H         1.9700933956    2.1772981168   -1.7925763040
     24  H         4.0221043224    2.2731564990   -0.3550745951
     25  H         4.5255386548    0.3869254597    1.2190969597
     26  H         2.9763682497   -1.5671195729    1.3679210038

Z-matrix Print:
$molecule
0 1
C 
C  1 1.419322
H  2 1.093282 1 119.368107
C  2 1.410980 1 120.799460 3 -179.232881 0
H  4 1.091307 2 119.858360 1 179.597796 0
C  4 1.412304 2 120.066703 1 -0.855762 0
H  6 1.091043 4 120.190678 2 -179.739874 0
C  6 1.413494 4 119.617319 2 -0.037786 0
H  8 1.091298 6 119.964478 4 -179.024502 0
C  8 1.409746 6 120.312816 4 0.111193 0
H  10 1.091473 8 120.041612 6 -179.133604 0
C  1 1.490249 2 119.801197 3 -1.999354 0
H  12 1.094819 1 115.506845 2 -43.958207 0
C  12 1.363028 1 126.966010 2 137.384082 0
H  14 1.094830 12 117.509841 1 176.066680 0
C  14 1.490178 12 126.982387 1 -5.273660 0
C  16 1.419355 14 119.780974 12 137.582065 0
H  17 1.093287 16 119.365632 14 -1.993812 0
C  17 1.410959 16 120.803283 14 178.768518 0
H  19 1.091306 17 119.859180 16 179.598280 0
C  19 1.412306 17 120.065546 16 -0.853904 0
H  21 1.091043 19 120.191488 17 -179.738416 0
C  21 1.413491 19 119.615796 17 -0.045125 0
H  23 1.091299 21 119.964108 19 -179.019154 0
C  23 1.409744 21 120.315823 19 0.119977 0
H  25 1.091458 23 120.035826 21 -179.117045 0
$end


 --------------------------------------------------------------

                    Orbital Energies (a.u.)
 --------------------------------------------------------------

 Alpha MOs
 -- Occupied --
-11.2542 -11.2541 -11.2493 -11.2479 -11.2443 -11.2443 -11.2433 -11.2433
-11.2428 -11.2428 -11.2420 -11.2420 -11.2406 -11.2406  -1.1530  -1.1419
 -1.0747  -1.0204  -1.0081  -1.0062  -0.9694  -0.8553  -0.8222  -0.8171
 -0.8071  -0.7497  -0.6992  -0.6751  -0.6496  -0.6361  -0.6217  -0.6122
 -0.5934  -0.5806  -0.5804  -0.5748  -0.5404  -0.4993  -0.4960  -0.4914
 -0.4865  -0.4783  -0.4683  -0.3950  -0.3400  -0.3311  -0.3257  -0.2864
 -- Virtual --
  0.0972   0.1340   0.1470   0.1526   0.2117   0.2384   0.2433   0.2632
  0.2865   0.2960   0.3065   0.3085   0.3186   0.3304   0.3337   0.3392
  0.3425   0.3613   0.3798   0.4123   0.4434   0.4710   0.4719   0.4836
  0.4861   0.4951   0.4980   0.5237   0.5858   0.6214   0.6606   0.6894
  0.7241   0.7424   0.7489   0.7675   0.7730   0.7834   0.7858   0.7956
  0.8119   0.8218   0.8320   0.8359   0.8512   0.8529   0.8567   0.8623
  0.8736   0.8786   0.8874   0.8914   0.8955   0.9006   0.9096   0.9256
  0.9314   0.9510   0.9648   0.9898   1.0275   1.0718   1.1077   1.1188
  1.1215   1.1318   1.1330   1.1366   1.1405   1.1537   1.1640   1.1663
  1.1812   1.1984   1.2237   1.2333   1.2339   1.2627   1.2668   1.2874
  1.3027   1.3195   1.3278   1.3502   1.3689   1.4058   1.4162   1.4194
  1.4287   1.4539   1.4710   1.5152   1.5200   1.5367   1.5587   1.6959
  1.7092   1.7274   1.7602   1.7722   2.1325   2.1838
 --------------------------------------------------------------

          Ground-State Mulliken Net Atomic Charges

     Atom                 Charge (a.u.)
  ----------------------------------------
      1 C                    -0.142297
      2 C                    -0.023119
      3 C                    -0.138158
      4 C                    -0.157573
      5 C                    -0.148948
      6 C                    -0.155644
      7 C                    -0.160288
      8 C                    -0.142086
      9 C                    -0.022789
     10 C                    -0.138247
     11 C                    -0.157598
     12 C                    -0.148943
     13 C                    -0.155632
     14 C                    -0.160408
     15 H                     0.145685
     16 H                     0.167738
     17 H                     0.153518
     18 H                     0.151996
     19 H                     0.152402
     20 H                     0.154552
     21 H                     0.145621
     22 H                     0.167790
     23 H                     0.153513
     24 H                     0.151992
     25 H                     0.152399
     26 H                     0.154523
  ----------------------------------------
  Sum of atomic charges =     0.000000

 -----------------------------------------------------------------
                    Cartesian Multipole Moments
 -----------------------------------------------------------------
    Charge (ESU x 10^10)
                 0.0000
    Dipole Moment (Debye)
         X      -0.0003      Y       0.1485      Z       0.0005
       Tot       0.1485
    Quadrupole Moments (Debye-Ang)
        XX     -78.7035     XY      -0.0194     YY     -78.0841
        XZ       4.8421     YZ       0.0127     ZZ     -83.9874
    Octopole Moments (Debye-Ang^2)
       XXX       0.0686    XXY      16.1006    XYY       0.0804
       YYY      -0.0558    XXZ       0.0376    XYZ     -10.6970
       YYZ      -0.0364    XZZ      -0.0993    YZZ       5.3290
       ZZZ       0.0483
    Hexadecapole Moments (Debye-Ang^3)
      XXXX   -3036.0376   XXXY      -1.3412   XXYY    -617.1803
      XYYY      -0.7695   YYYY    -813.3647   XXXZ     122.3865
      XXYZ       0.0620   XYYZ      -6.4398   YYYZ      -0.3885
      XXZZ    -592.8920   XYZZ      -0.4038   YYZZ    -201.1242
      XZZZ      19.6420   YZZZ      -0.2714   ZZZZ    -377.8044
 -----------------------------------------------------------------
Archival summary:
1\1\node15\OPT\ProcedureUnspecified\6-31G\1412\debashre\ThuJun2018:48:262024ThuJun2018:48:262024\0\\#,OPT,ProcedureUnspecified,6-31G,\\0,1\C\C,1,1.41932\H,2,1.09328,1,119.368\C,2,1.41098,1,120.799,3,-179.233,0\H,4,1.09131,2,119.858,1,179.598,0\C,4,1.4123,2,120.067,1,-0.855762,0\H,6,1.09104,4,120.191,2,-179.74,0\C,6,1.41349,4,119.617,2,-0.0377865,0\H,8,1.0913,6,119.964,4,-179.025,0\C,8,1.40975,6,120.313,4,0.111193,0\H,10,1.09147,8,120.042,6,-179.134,0\C,1,1.49025,2,119.801,3,-1.99935,0\H,12,1.09482,1,115.507,2,-43.9582,0\C,12,1.36303,1,126.966,2,137.384,0\H,14,1.09483,12,117.51,1,176.067,0\C,14,1.49018,12,126.982,1,-5.27366,0\C,16,1.41935,14,119.781,12,137.582,0\H,17,1.09329,16,119.366,14,-1.99381,0\C,17,1.41096,16,120.803,14,178.769,0\H,19,1.09131,17,119.859,16,179.598,0\C,19,1.41231,17,120.066,16,-0.853904,0\H,21,1.09104,19,120.191,17,-179.738,0\C,21,1.41349,19,119.616,17,-0.0451254,0\H,23,1.0913,21,119.964,19,-179.019,0\C,23,1.40974,21,120.316,19,0.119977,0\H,25,1.09146,23,120.036,21,-179.117,0\\HF=-536.934903\\@

 Total job time:  366.89s(wall), 1032.18s(cpu) 
 Thu Jun 20 18:48:26 2024

        *************************************************************
        *                                                           *
        *  Thank you very much for using Q-Chem.  Have a nice day.  *
        *                                                           *
        *************************************************************


