
 Primary working directories    : /scratch/debashree/manadip
 Secondary working directories  : /scratch/debashree/manadip
 Wavefunction directory         : /home/debashree/wfu/
 Main file repository           : /scratch/debashree/manadip/

 SHA1      : f6387f0c468d0184d0b38d85973bdb066f718752
 NAME      : 2015.1.44
 ARCHNAME  : linux/x86_64
 FC        : /opt/may/bin/gfortran
 BLASLIB   : -Wl,-_start-group /opt/intel/mkl/lib/intel64/libmkl_gf_ilp64.a /opt/intel/mkl/lib/intel64/libmkl_gnu_thread.a /opt/intel/mkl/lib/intel64/libmkl_core.a -Wl,-_end-group
 id        : iacsdirector

 Nodes             nprocs
 node32.iacs.res.in    4

 Using customized tuning parameters: mindgm=1; mindgv=20; mindgc=4; mindgr=1; noblas=0; minvec=7
 default implementation of scratch files=sf  

 memory,300,M
 print,orbital,basis
 symmetry,nosym
 geometry=cis_SB_input.xyz
 Including file /home/debashree/Manadip/cis_SB_input.xyz
 basis=6-31g
 
 
 {hf
 wf,96,1,0
 print,20
 }
 
 {casscf
 occ,49
 closed,47
 wf,96,1,0;state,2
 print,natorb
 cpmcscf,grad,[state=2.1],[spin=0],[ms2=0],[accu=1.d-8],[record=5101.1]
 }
 
 {optg}
 

 Variables initialized (889), CPU time= 0.02 sec
 Commands  initialized (702), CPU time= 0.02 sec, 572 directives.
 Default parameters read. Elapsed time= 1.06 sec

 Checking input...
 Passed
1


                                         ***  PROGRAM SYSTEM MOLPRO  ***
                                       Copyright, TTI GmbH Stuttgart, 2015
                                    Version 2015.1 linked Jun  9 2019 06:55:40


 **********************************************************************************************************************************
 LABEL *                                                                                 
  64 bit mpp version                                                                     DATE: 19-Jun-24          TIME: 02:26:37  
 **********************************************************************************************************************************

 SHA1:             f6387f0c468d0184d0b38d85973bdb066f718752
 **********************************************************************************************************************************


 Variable memory set to  300000000 words,  buffer space   230000 words

 ZSYMEL=NOSYM


Geometry recognized as XYZ

 SETTING BASIS          =    6-31G


 Recomputing integrals since basis changed


 Using spherical harmonics

 Library entry C      S 6-31G                selected for orbital group  1
 Library entry C      P 6-31G                selected for orbital group  1
 Library entry H      S 6-31G                selected for orbital group  2


 PROGRAM * SEWARD (Integral evaluation for generally contracted gaussian basis sets)     Author: Roland Lindh, 1990

 Geometry written to block  1 of record 700


 Point group  C1  



 ATOMIC COORDINATES

 NR  ATOM    CHARGE       X              Y              Z

   1  C       6.00    1.872454028   -0.503101786    1.829349375
   2  C       6.00    2.338725052    0.484374600   -0.733799551
   3  C       6.00    0.525457246    0.389472554   -2.657729719
   4  C       6.00    1.084665001    1.265662969   -5.066544713
   5  C       6.00    3.462979815    2.248774088   -5.609425234
   6  C       6.00    5.291856758    2.324627695   -3.722023472
   7  C       6.00    4.735974922    1.433565135   -1.316647780
   8  C       6.00   -0.234458320   -0.493237416    3.236855187
   9  C       6.00   -2.704387057    0.712332263    2.786363376
  10  C       6.00   -2.963846454    3.041665376    1.559250820
  11  C       6.00   -5.328366267    4.136686076    1.255647421
  12  C       6.00   -7.481973748    2.936577706    2.172296872
  13  C       6.00   -7.246173722    0.636781012    3.424051457
  14  C       6.00   -4.878252402   -0.449849304    3.741865597
  15  H       1.00    3.498374385   -1.407297942    2.674189233
  16  H       1.00   -1.313794294   -0.392515013   -2.270241377
  17  H       1.00   -0.334557113    1.168039718   -6.527605363
  18  H       1.00    3.891286241    2.927695993   -7.483353248
  19  H       1.00    7.148021347    3.065948356   -4.125083157
  20  H       1.00    6.168292838    1.486817618    0.135965795
  21  H       1.00   -0.117597657   -1.499686652    5.011024559
  22  H       1.00   -1.310354992    4.004272966    0.864474113
  23  H       1.00   -5.489711084    5.937802942    0.313127619
  24  H       1.00   -9.316312000    3.792925996    1.931375688
  25  H       1.00   -8.899570697   -0.302375077    4.160099782
  26  H       1.00   -4.708139256   -2.229385498    4.726186140

 Bond lengths in Bohr (Angstrom)

  1- 2  2.786081603   1- 8  2.533821138   1-15  2.043267502   2- 3  2.645459095   2- 7  2.643384510
       ( 1.474330892)       ( 1.340840403)       ( 1.081250598)       ( 1.399916665)       ( 1.398818842)

  3- 4  2.623511508   3-16  2.035804017   4- 5  2.630134614   4-17  2.039220423   5- 6  2.629226132
       ( 1.388302502)       ( 1.077301092)       ( 1.391807299)       ( 1.079108976)       ( 1.391326551)

  5-18  2.038623935   6- 7  2.624657944   6-19  2.038960621   7-20  2.040700036   8- 9  2.785119223
       ( 1.078793328)       ( 1.388909170)       ( 1.078971494)       ( 1.079891953)       ( 1.473821622)

  8-21  2.043103874   9-10  2.645546665   9-14  2.643736186  10-11  2.623394615  10-22  2.035525008
       ( 1.081164010)       ( 1.399963005)       ( 1.399004942)       ( 1.388240645)       ( 1.077153447)

 11-12  2.630310152  11-23  2.039214970  12-13  2.628983839  12-24  2.038669231  13-14  2.624656673
       ( 1.391900190)       ( 1.079106090)       ( 1.391198335)       ( 1.078817298)       ( 1.388908498)

 13-25  2.038995551  14-26  2.040728909
       ( 1.078989979)       ( 1.079907233)

 Bond angles

  1- 2- 3  122.79528743   1- 2- 7  118.80918168   1- 8- 9  130.48499748   1- 8-21  115.65110352

  2- 1- 8  130.45266605   2- 1-15  113.83230988   2- 3- 4  120.64124056   2- 3-16  119.64376442

  2- 7- 6  121.06766538   2- 7-20  119.27095380   3- 2- 7  118.30273876   3- 4- 5  120.47064080

  3- 4-17  119.57167007   4- 3-16  119.71060774   4- 5- 6  119.44639402   4- 5-18  120.27794825

  5- 4-17  119.95607143   5- 6- 7  120.05054608   5- 6-19  120.12038233   6- 5-18  120.27235604

  6- 7-20  119.65918154   7- 6-19  119.82823556   8- 1-15  115.70370818   8- 9-10  122.89653567

  8- 9-14  118.71607818   9- 8-21  113.85439832   9-10-11  120.63658480   9-10-22  119.67190848

  9-14-13  121.06948631   9-14-26  119.28259183  10- 9-14  118.29770779  10-11-12  120.47704924

 10-11-23  119.56910811  11-10-22  119.68714811  11-12-13  119.44741333  11-12-24  120.25606169

 12-11-23  119.95238001  12-13-14  120.04910345  12-13-25  120.13716231  13-12-24  120.29328392

 13-14-26  119.64535503  14-13-25  119.81276542


 BASIS DATA

   Nr Sym  Nuc  Type         Exponents   Contraction coefficients

    1.1 A     1  1s        3047.524900     0.001835
                            457.369520     0.014037
                            103.948680     0.068843
                             29.210155     0.232184
                              9.286663     0.467941
                              3.163927     0.362312
    2.1 A     1  1s           7.868272    -0.119332
                              1.881288    -0.160854
                              0.544249     1.143456
    3.1 A     1  1s           0.168714     1.000000
    4.1 A     1  2px          7.868272     0.068999
                              1.881288     0.316424
                              0.544249     0.744308
    5.1 A     1  2py          7.868272     0.068999
                              1.881288     0.316424
                              0.544249     0.744308
    6.1 A     1  2pz          7.868272     0.068999
                              1.881288     0.316424
                              0.544249     0.744308
    7.1 A     1  2px          0.168714     1.000000
    8.1 A     1  2py          0.168714     1.000000
    9.1 A     1  2pz          0.168714     1.000000
   10.1 A     2  1s        3047.524900     0.001835
                            457.369520     0.014037
                            103.948680     0.068843
                             29.210155     0.232184
                              9.286663     0.467941
                              3.163927     0.362312
   11.1 A     2  1s           7.868272    -0.119332
                              1.881288    -0.160854
                              0.544249     1.143456
   12.1 A     2  1s           0.168714     1.000000
   13.1 A     2  2px          7.868272     0.068999
                              1.881288     0.316424
                              0.544249     0.744308
   14.1 A     2  2py          7.868272     0.068999
                              1.881288     0.316424
                              0.544249     0.744308
   15.1 A     2  2pz          7.868272     0.068999
                              1.881288     0.316424
                              0.544249     0.744308
   16.1 A     2  2px          0.168714     1.000000
   17.1 A     2  2py          0.168714     1.000000
   18.1 A     2  2pz          0.168714     1.000000
   19.1 A     3  1s        3047.524900     0.001835
                            457.369520     0.014037
                            103.948680     0.068843
                             29.210155     0.232184
                              9.286663     0.467941
                              3.163927     0.362312
   20.1 A     3  1s           7.868272    -0.119332
                              1.881288    -0.160854
                              0.544249     1.143456
   21.1 A     3  1s           0.168714     1.000000
   22.1 A     3  2px          7.868272     0.068999
                              1.881288     0.316424
                              0.544249     0.744308
   23.1 A     3  2py          7.868272     0.068999
                              1.881288     0.316424
                              0.544249     0.744308
   24.1 A     3  2pz          7.868272     0.068999
                              1.881288     0.316424
                              0.544249     0.744308
   25.1 A     3  2px          0.168714     1.000000
   26.1 A     3  2py          0.168714     1.000000
   27.1 A     3  2pz          0.168714     1.000000
   28.1 A     4  1s        3047.524900     0.001835
                            457.369520     0.014037
                            103.948680     0.068843
                             29.210155     0.232184
                              9.286663     0.467941
                              3.163927     0.362312
   29.1 A     4  1s           7.868272    -0.119332
                              1.881288    -0.160854
                              0.544249     1.143456
   30.1 A     4  1s           0.168714     1.000000
   31.1 A     4  2px          7.868272     0.068999
                              1.881288     0.316424
                              0.544249     0.744308
   32.1 A     4  2py          7.868272     0.068999
                              1.881288     0.316424
                              0.544249     0.744308
   33.1 A     4  2pz          7.868272     0.068999
                              1.881288     0.316424
                              0.544249     0.744308
   34.1 A     4  2px          0.168714     1.000000
   35.1 A     4  2py          0.168714     1.000000
   36.1 A     4  2pz          0.168714     1.000000
   37.1 A     5  1s        3047.524900     0.001835
                            457.369520     0.014037
                            103.948680     0.068843
                             29.210155     0.232184
                              9.286663     0.467941
                              3.163927     0.362312
   38.1 A     5  1s           7.868272    -0.119332
                              1.881288    -0.160854
                              0.544249     1.143456
   39.1 A     5  1s           0.168714     1.000000
   40.1 A     5  2px          7.868272     0.068999
                              1.881288     0.316424
                              0.544249     0.744308
   41.1 A     5  2py          7.868272     0.068999
                              1.881288     0.316424
                              0.544249     0.744308
   42.1 A     5  2pz          7.868272     0.068999
                              1.881288     0.316424
                              0.544249     0.744308
   43.1 A     5  2px          0.168714     1.000000
   44.1 A     5  2py          0.168714     1.000000
   45.1 A     5  2pz          0.168714     1.000000
   46.1 A     6  1s        3047.524900     0.001835
                            457.369520     0.014037
                            103.948680     0.068843
                             29.210155     0.232184
                              9.286663     0.467941
                              3.163927     0.362312
   47.1 A     6  1s           7.868272    -0.119332
                              1.881288    -0.160854
                              0.544249     1.143456
   48.1 A     6  1s           0.168714     1.000000
   49.1 A     6  2px          7.868272     0.068999
                              1.881288     0.316424
                              0.544249     0.744308
   50.1 A     6  2py          7.868272     0.068999
                              1.881288     0.316424
                              0.544249     0.744308
   51.1 A     6  2pz          7.868272     0.068999
                              1.881288     0.316424
                              0.544249     0.744308
   52.1 A     6  2px          0.168714     1.000000
   53.1 A     6  2py          0.168714     1.000000
   54.1 A     6  2pz          0.168714     1.000000
   55.1 A     7  1s        3047.524900     0.001835
                            457.369520     0.014037
                            103.948680     0.068843
                             29.210155     0.232184
                              9.286663     0.467941
                              3.163927     0.362312
   56.1 A     7  1s           7.868272    -0.119332
                              1.881288    -0.160854
                              0.544249     1.143456
   57.1 A     7  1s           0.168714     1.000000
   58.1 A     7  2px          7.868272     0.068999
                              1.881288     0.316424
                              0.544249     0.744308
   59.1 A     7  2py          7.868272     0.068999
                              1.881288     0.316424
                              0.544249     0.744308
   60.1 A     7  2pz          7.868272     0.068999
                              1.881288     0.316424
                              0.544249     0.744308
   61.1 A     7  2px          0.168714     1.000000
   62.1 A     7  2py          0.168714     1.000000
   63.1 A     7  2pz          0.168714     1.000000
   64.1 A     8  1s        3047.524900     0.001835
                            457.369520     0.014037
                            103.948680     0.068843
                             29.210155     0.232184
                              9.286663     0.467941
                              3.163927     0.362312
   65.1 A     8  1s           7.868272    -0.119332
                              1.881288    -0.160854
                              0.544249     1.143456
   66.1 A     8  1s           0.168714     1.000000
   67.1 A     8  2px          7.868272     0.068999
                              1.881288     0.316424
                              0.544249     0.744308
   68.1 A     8  2py          7.868272     0.068999
                              1.881288     0.316424
                              0.544249     0.744308
   69.1 A     8  2pz          7.868272     0.068999
                              1.881288     0.316424
                              0.544249     0.744308
   70.1 A     8  2px          0.168714     1.000000
   71.1 A     8  2py          0.168714     1.000000
   72.1 A     8  2pz          0.168714     1.000000
   73.1 A     9  1s        3047.524900     0.001835
                            457.369520     0.014037
                            103.948680     0.068843
                             29.210155     0.232184
                              9.286663     0.467941
                              3.163927     0.362312
   74.1 A     9  1s           7.868272    -0.119332
                              1.881288    -0.160854
                              0.544249     1.143456
   75.1 A     9  1s           0.168714     1.000000
   76.1 A     9  2px          7.868272     0.068999
                              1.881288     0.316424
                              0.544249     0.744308
   77.1 A     9  2py          7.868272     0.068999
                              1.881288     0.316424
                              0.544249     0.744308
   78.1 A     9  2pz          7.868272     0.068999
                              1.881288     0.316424
                              0.544249     0.744308
   79.1 A     9  2px          0.168714     1.000000
   80.1 A     9  2py          0.168714     1.000000
   81.1 A     9  2pz          0.168714     1.000000
   82.1 A    10  1s        3047.524900     0.001835
                            457.369520     0.014037
                            103.948680     0.068843
                             29.210155     0.232184
                              9.286663     0.467941
                              3.163927     0.362312
   83.1 A    10  1s           7.868272    -0.119332
                              1.881288    -0.160854
                              0.544249     1.143456
   84.1 A    10  1s           0.168714     1.000000
   85.1 A    10  2px          7.868272     0.068999
                              1.881288     0.316424
                              0.544249     0.744308
   86.1 A    10  2py          7.868272     0.068999
                              1.881288     0.316424
                              0.544249     0.744308
   87.1 A    10  2pz          7.868272     0.068999
                              1.881288     0.316424
                              0.544249     0.744308
   88.1 A    10  2px          0.168714     1.000000
   89.1 A    10  2py          0.168714     1.000000
   90.1 A    10  2pz          0.168714     1.000000
   91.1 A    11  1s        3047.524900     0.001835
                            457.369520     0.014037
                            103.948680     0.068843
                             29.210155     0.232184
                              9.286663     0.467941
                              3.163927     0.362312
   92.1 A    11  1s           7.868272    -0.119332
                              1.881288    -0.160854
                              0.544249     1.143456
   93.1 A    11  1s           0.168714     1.000000
   94.1 A    11  2px          7.868272     0.068999
                              1.881288     0.316424
                              0.544249     0.744308
   95.1 A    11  2py          7.868272     0.068999
                              1.881288     0.316424
                              0.544249     0.744308
   96.1 A    11  2pz          7.868272     0.068999
                              1.881288     0.316424
                              0.544249     0.744308
   97.1 A    11  2px          0.168714     1.000000
   98.1 A    11  2py          0.168714     1.000000
   99.1 A    11  2pz          0.168714     1.000000
  100.1 A    12  1s        3047.524900     0.001835
                            457.369520     0.014037
                            103.948680     0.068843
                             29.210155     0.232184
                              9.286663     0.467941
                              3.163927     0.362312
  101.1 A    12  1s           7.868272    -0.119332
                              1.881288    -0.160854
                              0.544249     1.143456
  102.1 A    12  1s           0.168714     1.000000
  103.1 A    12  2px          7.868272     0.068999
                              1.881288     0.316424
                              0.544249     0.744308
  104.1 A    12  2py          7.868272     0.068999
                              1.881288     0.316424
                              0.544249     0.744308
  105.1 A    12  2pz          7.868272     0.068999
                              1.881288     0.316424
                              0.544249     0.744308
  106.1 A    12  2px          0.168714     1.000000
  107.1 A    12  2py          0.168714     1.000000
  108.1 A    12  2pz          0.168714     1.000000
  109.1 A    13  1s        3047.524900     0.001835
                            457.369520     0.014037
                            103.948680     0.068843
                             29.210155     0.232184
                              9.286663     0.467941
                              3.163927     0.362312
  110.1 A    13  1s           7.868272    -0.119332
                              1.881288    -0.160854
                              0.544249     1.143456
  111.1 A    13  1s           0.168714     1.000000
  112.1 A    13  2px          7.868272     0.068999
                              1.881288     0.316424
                              0.544249     0.744308
  113.1 A    13  2py          7.868272     0.068999
                              1.881288     0.316424
                              0.544249     0.744308
  114.1 A    13  2pz          7.868272     0.068999
                              1.881288     0.316424
                              0.544249     0.744308
  115.1 A    13  2px          0.168714     1.000000
  116.1 A    13  2py          0.168714     1.000000
  117.1 A    13  2pz          0.168714     1.000000
  118.1 A    14  1s        3047.524900     0.001835
                            457.369520     0.014037
                            103.948680     0.068843
                             29.210155     0.232184
                              9.286663     0.467941
                              3.163927     0.362312
  119.1 A    14  1s           7.868272    -0.119332
                              1.881288    -0.160854
                              0.544249     1.143456
  120.1 A    14  1s           0.168714     1.000000
  121.1 A    14  2px          7.868272     0.068999
                              1.881288     0.316424
                              0.544249     0.744308
  122.1 A    14  2py          7.868272     0.068999
                              1.881288     0.316424
                              0.544249     0.744308
  123.1 A    14  2pz          7.868272     0.068999
                              1.881288     0.316424
                              0.544249     0.744308
  124.1 A    14  2px          0.168714     1.000000
  125.1 A    14  2py          0.168714     1.000000
  126.1 A    14  2pz          0.168714     1.000000
  127.1 A    15  1s          18.731137     0.033495
                              2.825394     0.234727
                              0.640122     0.813757
  128.1 A    15  1s           0.161278     1.000000
  129.1 A    16  1s          18.731137     0.033495
                              2.825394     0.234727
                              0.640122     0.813757
  130.1 A    16  1s           0.161278     1.000000
  131.1 A    17  1s          18.731137     0.033495
                              2.825394     0.234727
                              0.640122     0.813757
  132.1 A    17  1s           0.161278     1.000000
  133.1 A    18  1s          18.731137     0.033495
                              2.825394     0.234727
                              0.640122     0.813757
  134.1 A    18  1s           0.161278     1.000000
  135.1 A    19  1s          18.731137     0.033495
                              2.825394     0.234727
                              0.640122     0.813757
  136.1 A    19  1s           0.161278     1.000000
  137.1 A    20  1s          18.731137     0.033495
                              2.825394     0.234727
                              0.640122     0.813757
  138.1 A    20  1s           0.161278     1.000000
  139.1 A    21  1s          18.731137     0.033495
                              2.825394     0.234727
                              0.640122     0.813757
  140.1 A    21  1s           0.161278     1.000000
  141.1 A    22  1s          18.731137     0.033495
                              2.825394     0.234727
                              0.640122     0.813757
  142.1 A    22  1s           0.161278     1.000000
  143.1 A    23  1s          18.731137     0.033495
                              2.825394     0.234727
                              0.640122     0.813757
  144.1 A    23  1s           0.161278     1.000000
  145.1 A    24  1s          18.731137     0.033495
                              2.825394     0.234727
                              0.640122     0.813757
  146.1 A    24  1s           0.161278     1.000000
  147.1 A    25  1s          18.731137     0.033495
                              2.825394     0.234727
                              0.640122     0.813757
  148.1 A    25  1s           0.161278     1.000000
  149.1 A    26  1s          18.731137     0.033495
                              2.825394     0.234727
                              0.640122     0.813757
  150.1 A    26  1s           0.161278     1.000000

 NUCLEAR CHARGE:                   96
 NUMBER OF PRIMITIVE AOS:         356
 NUMBER OF SYMMETRY AOS:          356
 NUMBER OF CONTRACTIONS:          150   ( 150A   )
 NUMBER OF CORE ORBITALS:          14   (  14A   )
 NUMBER OF VALENCE ORBITALS:       68   (  68A   )


 NUCLEAR REPULSION ENERGY  766.28344391


 Eigenvalues of metric

         1 0.596E-03 0.603E-03 0.211E-02 0.275E-02 0.326E-02 0.499E-02 0.510E-02 0.563E-02


 Contracted 2-electron integrals neglected if value below      1.0D-11
 AO integral compression algorithm  1   Integral accuracy      1.0D-11

     162.529 MB (compressed) written to integral file ( 30.1%)

     Node minimum: 36.176 MB, node maximum: 44.302 MB


 NUMBER OF SORTED TWO-ELECTRON INTEGRALS:   16034784.     BUFFER LENGTH:  32768
 NUMBER OF SEGMENTS:   2  SEGMENT LENGTH:   15989512      RECORD LENGTH: 524288

 Memory used in sort:      16.55 MW

 SORT1 READ    67654850. AND WROTE     9951532. INTEGRALS IN     30 RECORDS. CPU TIME:     1.05 SEC, REAL TIME:     1.88 SEC
 SORT2 READ    39763085. AND WROTE    64133475. INTEGRALS IN    552 RECORDS. CPU TIME:     0.19 SEC, REAL TIME:     0.39 SEC

 Node minimum:    16029122.  Node maximum:    16037616. integrals

 OPERATOR DM      FOR CENTER  0  COORDINATES:    0.000000    0.000000    0.000000


 **********************************************************************************************************************************
 DATASETS  * FILE   NREC   LENGTH (MB)   RECORD NAMES
              1      18       21.20       500      610      700      900      950      970     1000      129      960     1100   
                                          VAR    BASINP    GEOM    SYMINP    ZMAT    AOBASIS   BASIS     P2S    ABASIS      S 
                                         1400     1410     1200     1210     1080     1600     1650     1700   
                                           T        V       H0       H01     AOSYM     SMH    MOLCAS    OPER   

 PROGRAMS   *        TOTAL       INT
 CPU TIMES  *         3.18      2.87
 REAL TIME  *         6.31 SEC
 DISK USED  *       641.82 MB      
 GA USED    *         0.01 MB       (max)       0.00 MB       (current)
 **********************************************************************************************************************************


 PROGRAM * RHF-SCF (CLOSED SHELL)       Authors: W. Meyer, H.-J. Werner


 NUMBER OF ELECTRONS:      48+   48-    SPACE SYMMETRY=1    SPIN SYMMETRY: Singlet 
 CONVERGENCE THRESHOLDS:    1.00E-06 (Density)    1.92E-07 (Energy)
 MAX. NUMBER OF ITERATIONS:       60
 INTERPOLATION TYPE:            DIIS
 INTERPOLATION STEPS:              2 (START)      1 (STEP)
 LEVEL SHIFTS:                  0.00 (CLOSED)  0.00 (OPEN) 




   Atom=C  basis=MINAO             lmin=0  lmax=1
   Atom=H  basis=MINAO             lmin=0  lmax=0

 Orbital guess generated from atomic densities. Full valence occupancy:   48

 Molecular orbital dump at record        2100.2

 Initial occupancy:  48

 ITERATION    DDIFF          GRAD             ENERGY        2-EL.EN.            DIPOLE MOMENTS         DIIS   ORB.
    1      0.000D+00      0.000D+00      -536.83786136   1892.541859    0.02674   -0.03067    0.04201    0    start
    2      0.000D+00      0.359D-02      -536.93732319   1882.305212   -0.04269    0.04717   -0.06796    1    diag
    3      0.778D-02      0.105D-02      -536.94503627   1885.874007   -0.01955    0.02130   -0.03004    2    diag
    4      0.267D-02      0.334D-03      -536.94591817   1885.030443   -0.02941    0.03221   -0.04652    3    diag
    5      0.892D-03      0.100D-03      -536.94598014   1885.076387   -0.03017    0.03300   -0.04690    4    diag
    6      0.166D-03      0.211D-04      -536.94598502   1885.070643   -0.02910    0.03178   -0.04531    5    diag
    7      0.535D-04      0.593D-05      -536.94598548   1885.074277   -0.03004    0.03279   -0.04666    6    diag
    8      0.151D-04      0.245D-05      -536.94598559   1885.073421   -0.02975    0.03244   -0.04616    7    diag
    9      0.809D-05      0.903D-06      -536.94598560   1885.073858   -0.02991    0.03261   -0.04639    8    diag
   10      0.257D-05      0.487D-06      -536.94598561   1885.073746   -0.02987    0.03256   -0.04631    9    orth
   11      0.142D-05      0.183D-06      -536.94598561   1885.073762   -0.02989    0.03258   -0.04633    9    diag
   12      0.772D-06      0.458D-07      -536.94598561   1885.073779   -0.02988    0.03257   -0.04632    0    orth

 Final occupancy:  48

 !RHF STATE 1.1 Energy               -536.945985610657
 Nuclear energy                       766.28344391
 One-electron energy                -2245.76631901
 Two-electron energy                  942.53688949
 Virial quotient                       -0.99917163
 !RHF STATE 1.1 Dipole moment          -0.02988427     0.03257330    -0.04632114
 Dipole moment /Debye                  -0.07595326     0.08278765    -0.11772887

 ELECTRON ORBITALS
 =================


   Orb  Occ    Energy  Couls-En    Coefficients

                                   1 1s      1 1s      1 1s      1 2px     1 2py     1 2pz     1 2px     1 2py     1 2pz     2 1s   
                                   2 1s      2 1s      2 2px     2 2py     2 2pz     2 2px     2 2py     2 2pz     3 1s      3 1s   
                                   3 1s      3 2px     3 2py     3 2pz     3 2px     3 2py     3 2pz     4 1s      4 1s      4 1s   
                                   4 2px     4 2py     4 2pz     4 2px     4 2py     4 2pz     5 1s      5 1s      5 1s      5 2px  
                                   5 2py     5 2pz     5 2px     5 2py     5 2pz     6 1s      6 1s      6 1s      6 2px     6 2py  
                                   6 2pz     6 2px     6 2py     6 2pz     7 1s      7 1s      7 1s      7 2px     7 2py     7 2pz  
                                   7 2px     7 2py     7 2pz     8 1s      8 1s      8 1s      8 2px     8 2py     8 2pz     8 2px  
                                   8 2py     8 2pz     9 1s      9 1s      9 1s      9 2px     9 2py     9 2pz     9 2px     9 2py  
                                   9 2pz    10 1s     10 1s     10 1s     10 2px    10 2py    10 2pz    10 2px    10 2py    10 2pz  
                                  11 1s     11 1s     11 1s     11 2px    11 2py    11 2pz    11 2px    11 2py    11 2pz    12 1s   
                                  12 1s     12 1s     12 2px    12 2py    12 2pz    12 2px    12 2py    12 2pz    13 1s     13 1s   
                                  13 1s     13 2px    13 2py    13 2pz    13 2px    13 2py    13 2pz    14 1s     14 1s     14 1s   
                                  14 2px    14 2py    14 2pz    14 2px    14 2py    14 2pz    15 1s     15 1s     16 1s     16 1s   
                                  17 1s     17 1s     18 1s     18 1s     19 1s     19 1s     20 1s     20 1s     21 1s     21 1s   
                                  22 1s     22 1s     23 1s     23 1s     24 1s     24 1s     25 1s     25 1s     26 1s     26 1s   


   1.1   2   -11.2474  -47.2084  0.056298  0.000912  0.002186 -0.000049 -0.000008  0.000203  0.000782  0.000608 -0.002577  0.992334
                                 0.025499 -0.021538 -0.000011  0.000046 -0.000011 -0.000260 -0.000409  0.001496  0.041127  0.000223
                                 0.006538 -0.000180  0.000046 -0.000113  0.003058  0.000344  0.001751  0.001633  0.000070 -0.002029
                                 0.000037  0.000031 -0.000074 -0.001328 -0.000176 -0.000719 -0.000877 -0.000249  0.002532  0.000017
                                 0.000018 -0.000047 -0.000393 -0.000537  0.001344  0.002266  0.000102 -0.002308  0.000004  0.000032
                                -0.000096  0.001465  0.000521 -0.000147  0.050517  0.000303  0.006877  0.000208  0.000059 -0.000024
                                -0.003243 -0.000857 -0.000517  0.006291 -0.000003  0.000415 -0.000116 -0.000050  0.000112  0.001192
                                 0.000211 -0.000569  0.013668  0.000520 -0.002053 -0.000030  0.000036 -0.000021  0.000438 -0.001684
                                 0.001076  0.000523  0.000056  0.000327 -0.000015  0.000173 -0.000012 -0.000052 -0.002460  0.001050
                                -0.000036 -0.000073  0.000518 -0.000035 -0.000014 -0.000007  0.001161  0.000566 -0.000303  0.000010
                                 0.000009  0.000683  0.000027 -0.000006  0.000005  0.000242  0.000345 -0.000279  0.000019 -0.000007
                                -0.000165 -0.000008  0.000008 -0.000006 -0.000256  0.000124 -0.000007  0.000642 -0.000046  0.000181
                                -0.000017 -0.000005 -0.000001 -0.000323  0.000374 -0.000213 -0.000122  0.000241 -0.000103  0.000456
                                -0.000044 -0.000244  0.000044  0.000399 -0.000042 -0.000263 -0.000101  0.000398  0.000049  0.000389
                                -0.000192  0.001760 -0.000074 -0.000298 -0.000029 -0.000037 -0.000009 -0.000034  0.000024  0.000177

   2.1   2   -11.2474  -47.2051  0.004827 -0.000017  0.000280  0.000163 -0.000002 -0.000047 -0.001091 -0.000289  0.000695 -0.014253
                                -0.000201 -0.001381 -0.000013  0.000012 -0.000046  0.001223 -0.000199  0.001482 -0.000629  0.000048
                                 0.000144 -0.000075 -0.000067 -0.000129  0.001773  0.000429  0.001660 -0.000080 -0.000071  0.000521
                                 0.000019  0.000028 -0.000011 -0.001034 -0.000599  0.000347  0.000033  0.000014  0.000604 -0.000008
                                -0.000014  0.000023 -0.000458 -0.000068 -0.000119 -0.000044 -0.000009 -0.000115 -0.000003  0.000004
                                -0.000009  0.000046  0.000060 -0.000250 -0.000778 -0.000054  0.000024  0.000004  0.000009 -0.000006
                                -0.000074  0.000152 -0.000474  0.057249  0.000923  0.002258  0.000174 -0.000121 -0.000027 -0.002457
                                 0.001230  0.000028  0.992283  0.025470 -0.021431 -0.000025 -0.000009 -0.000033  0.001342 -0.000750
                                 0.000110  0.040847  0.000206  0.006543  0.000000  0.000147 -0.000157 -0.000664 -0.002852  0.001869
                                 0.001614  0.000072 -0.002049 -0.000085  0.000023  0.000002  0.000294  0.001238 -0.000798 -0.000878
                                -0.000248  0.002511 -0.000050  0.000018 -0.000003  0.001380 -0.000557  0.000157  0.002263  0.000102
                                -0.002302 -0.000082  0.000053 -0.000022 -0.001151 -0.000838  0.000626  0.050608  0.000308  0.006854
                                -0.000160 -0.000109  0.000101  0.001848  0.002319 -0.001615  0.000050  0.000364 -0.000183  0.001680
                                -0.000070 -0.000282 -0.000028 -0.000043 -0.000008 -0.000029  0.000026  0.000166 -0.000123  0.000223
                                -0.000099  0.000412 -0.000042 -0.000239  0.000045  0.000399 -0.000041 -0.000261 -0.000102  0.000391

   3.1   2   -11.2417  -45.7592  0.688595  0.016680 -0.006794  0.000062  0.000092 -0.000195 -0.000627 -0.000072  0.000828 -0.042714
                                -0.001487  0.003520  0.000056  0.000082 -0.000143 -0.000493 -0.000083 -0.000305 -0.003818  0.000042
                                -0.002966 -0.000022  0.000097 -0.000174 -0.001065 -0.000903  0.001189 -0.000372 -0.000229  0.002757
                                -0.000001 -0.000018  0.000015  0.000436 -0.000168  0.001484  0.000143  0.000071 -0.001196  0.000015
                                 0.000004  0.000011  0.000140  0.000312 -0.000991 -0.000493 -0.000136  0.002201 -0.000022 -0.000006
                                 0.000018 -0.000789 -0.000471  0.000583 -0.005378 -0.000125 -0.001326  0.000037 -0.000003 -0.000082
                                 0.000211 -0.000293  0.001520  0.716740  0.017419 -0.007567 -0.000206  0.000073 -0.000040  0.000921
                                -0.000361 -0.000175 -0.045037 -0.001573  0.003846 -0.000172  0.000040 -0.000025  0.000238  0.000508
                                -0.000323 -0.003936  0.000041 -0.003055 -0.000157  0.000093 -0.000092  0.001836  0.000123 -0.000076
                                -0.000374 -0.000234  0.002793  0.000022 -0.000001  0.000012  0.000828 -0.001267  0.000478  0.000145
                                 0.000071 -0.001249 -0.000004 -0.000017  0.000007 -0.000922  0.000518 -0.000150 -0.000507 -0.000140
                                 0.002231  0.000027 -0.000001 -0.000011  0.001084  0.000184 -0.000196 -0.005636 -0.000131 -0.001323
                                -0.000074  0.000047  0.000027  0.001062 -0.001100  0.000394 -0.000191  0.001647 -0.000156 -0.000130
                                 0.000012  0.000311 -0.000061 -0.000264  0.000001  0.000228 -0.000110 -0.000350 -0.000200  0.001674
                                -0.000153 -0.000149  0.000015  0.000328 -0.000061 -0.000266  0.000002  0.000239 -0.000110 -0.000363

   4.1   2   -11.2401  -45.7566  0.717634  0.018917 -0.018983 -0.000298  0.000104 -0.000029  0.003917 -0.001949  0.001595 -0.036474
                                -0.001390  0.006376 -0.000020  0.000030 -0.000071 -0.001371 -0.000841  0.002541 -0.003802 -0.000137
                                -0.001368 -0.000017  0.000078 -0.000104 -0.000450 -0.000503  0.000219 -0.000371 -0.000154  0.001426
                                -0.000011 -0.000011  0.000002  0.000545  0.000060  0.000817 -0.000083  0.000016 -0.001004  0.000006
                                 0.000012 -0.000021  0.000175  0.000222 -0.000569 -0.001048 -0.000181  0.001270  0.000006  0.000029
                                -0.000003 -0.000710 -0.000465  0.000351 -0.006768 -0.000144 -0.000765  0.000045 -0.000034 -0.000105
                                -0.000025  0.000031  0.000499 -0.689437 -0.018231  0.018723 -0.000109 -0.000116  0.000277  0.000164
                                 0.002201 -0.004121  0.035415  0.001364 -0.006329  0.000049 -0.000047  0.000037 -0.002910  0.000835
                                 0.000264  0.003576  0.000132  0.001271  0.000091 -0.000046  0.000066 -0.000528 -0.000308 -0.000046
                                 0.000333  0.000143 -0.001276 -0.000012 -0.000009  0.000000 -0.000175  0.000831 -0.000333  0.000081
                                -0.000013  0.000954  0.000024 -0.000007  0.000005  0.000538 -0.000208  0.000049  0.000978  0.000170
                                -0.001124  0.000021  0.000015  0.000015 -0.000782 -0.000309  0.000144  0.006514  0.000137  0.000675
                                 0.000070 -0.000070 -0.000051 -0.000236  0.000313  0.000043 -0.000197  0.000861 -0.000027 -0.000127
                                 0.000031  0.000301 -0.000027 -0.000118  0.000029  0.000284 -0.000041 -0.000022  0.000192 -0.000793
                                 0.000018  0.000105 -0.000031 -0.000285  0.000023  0.000103 -0.000030 -0.000272  0.000032  0.000014

   5.1   2   -11.2372  -44.1013  0.003249 -0.000086  0.001257 -0.000004 -0.000013  0.000009  0.000383  0.000584 -0.001298 -0.024091
                                -0.001052  0.001995 -0.000144 -0.000107  0.000183  0.000766  0.000988 -0.002362  0.019487  0.000265
                                -0.000964 -0.000096 -0.000046  0.000058 -0.000547 -0.000120 -0.000358  0.158658  0.003454  0.000116
                                -0.000175 -0.000077  0.000066  0.001096  0.000373  0.000043  0.470268  0.011037 -0.003465 -0.000128
                                -0.000037 -0.000027  0.000944  0.000139  0.000638  0.754139  0.018262 -0.008034 -0.000127 -0.000063
                                 0.000084  0.000346  0.000179 -0.000192  0.419182  0.009888 -0.003544 -0.000131 -0.000074  0.000144
                                 0.001026  0.000523 -0.000725 -0.000825  0.000010 -0.000144 -0.000001  0.000011 -0.000004  0.000740
                                -0.000457  0.000195  0.000074 -0.000034  0.000296 -0.000028  0.000003  0.000005  0.000858 -0.000255
                                 0.000038 -0.000011 -0.000025  0.000333  0.000014  0.000006 -0.000003 -0.000436 -0.000100  0.000095
                                -0.000114  0.000012 -0.000401 -0.000007  0.000003 -0.000002 -0.000083  0.000176 -0.000079 -0.000472
                                -0.000030  0.000239 -0.000003  0.000003 -0.000001  0.000144 -0.000086  0.000029 -0.000637 -0.000010
                                -0.000295 -0.000008  0.000002  0.000001 -0.000119 -0.000070  0.000048 -0.000399 -0.000036  0.000460
                                 0.000003  0.000000 -0.000004 -0.000004  0.000290 -0.000154 -0.000036  0.000144 -0.000003  0.000034
                                -0.000048  0.000655 -0.000199  0.001180 -0.000294  0.001631 -0.000188  0.000835 -0.000039 -0.000121
                                 0.000020  0.000190 -0.000003 -0.000043  0.000007  0.000047 -0.000002 -0.000025  0.000014  0.000107

   6.1   2   -11.2372  -44.1092  0.000814 -0.000007  0.000105  0.000007  0.000002  0.000008  0.000068  0.000285 -0.000823 -0.000031
                                 0.000038 -0.000317 -0.000017 -0.000009  0.000021  0.000307  0.000319 -0.000732 -0.000019  0.000024
                                -0.000315  0.000010  0.000007 -0.000005 -0.000318 -0.000182  0.000213 -0.000168 -0.000017  0.000377
                                -0.000000 -0.000003  0.000007  0.000076 -0.000018  0.000176 -0.000373  0.000009 -0.000211  0.000001
                                -0.000001  0.000005  0.000012  0.000048 -0.000152 -0.000711 -0.000022  0.000291 -0.000004 -0.000002
                                 0.000007 -0.000121 -0.000054  0.000025 -0.000370  0.000017 -0.000427  0.000005 -0.000002 -0.000002
                                 0.000227  0.000023  0.000211 -0.003229  0.000083 -0.001258 -0.000014 -0.000002 -0.000006  0.001378
                                -0.000498  0.000174  0.024822  0.001090 -0.002219 -0.000258  0.000015  0.000018  0.002606 -0.000931
                                 0.000240 -0.018745 -0.000253  0.001082 -0.000113 -0.000026  0.000032 -0.000177 -0.000616  0.000324
                                -0.156914 -0.003401 -0.000273 -0.000178 -0.000073  0.000064  0.000755  0.000802 -0.000526 -0.472914
                                -0.011119  0.003702 -0.000072 -0.000098  0.000062  0.000243  0.000929 -0.000545 -0.744426 -0.017995
                                 0.007641 -0.000151 -0.000027  0.000038  0.000278  0.000057 -0.000059 -0.433951 -0.010277  0.003986
                                -0.000204  0.000003  0.000037  0.001284  0.000323 -0.000381  0.000038  0.000113 -0.000020 -0.000168
                                 0.000002  0.000036 -0.000006 -0.000046  0.000002  0.000019 -0.000013 -0.000103  0.000037 -0.000137
                                 0.000004 -0.000016  0.000046 -0.000669  0.000201 -0.001165  0.000290 -0.001639  0.000194 -0.000840

   7.1   2   -11.2364  -44.4585 -0.002884 -0.000104  0.000323  0.000024  0.000011 -0.000017 -0.000205  0.000065 -0.000044  0.024494
                                 0.001003 -0.004129  0.000167  0.000053  0.000054 -0.001308 -0.000733  0.000851  0.115558  0.002471
                                 0.001522  0.000036 -0.000045  0.000219  0.000763  0.000538 -0.000920  0.486406  0.011730 -0.004607
                                 0.000045 -0.000023  0.000128  0.000426  0.000375 -0.000801  0.624141  0.015507 -0.008684  0.000131
                                -0.000038  0.000260 -0.000877  0.000119 -0.001364 -0.179565 -0.004620  0.002897  0.000174 -0.000002
                                 0.000211 -0.000962  0.000219 -0.001944 -0.565463 -0.014298  0.009256  0.000173 -0.000013  0.000195
                                -0.001537 -0.000196 -0.000937  0.000589  0.000040 -0.000322 -0.000017 -0.000001  0.000015 -0.000028
                                -0.000030  0.000132 -0.000034  0.000016  0.000060  0.000005 -0.000001 -0.000009 -0.000039 -0.000064
                                 0.000074 -0.000185  0.000001 -0.000100 -0.000016  0.000009  0.000015  0.000139 -0.000086 -0.000030
                                -0.000274 -0.000018  0.000194  0.000003  0.000000 -0.000006  0.000048 -0.000074  0.000070 -0.000195
                                 0.000002 -0.000107 -0.000001 -0.000001  0.000001 -0.000061  0.000029 -0.000023  0.000056 -0.000006
                                 0.000064 -0.000003 -0.000000 -0.000002  0.000036  0.000045 -0.000016  0.000258  0.000012 -0.000109
                                -0.000001 -0.000001  0.000001 -0.000044 -0.000024  0.000003  0.000034  0.000035 -0.000061  0.000463
                                -0.000227  0.000954 -0.000226  0.001142  0.000055 -0.000263  0.000221 -0.000796 -0.000000 -0.000016
                                -0.000037  0.000071  0.000003  0.000026 -0.000003 -0.000017  0.000003  0.000017  0.000002  0.000005

   8.1   2   -11.2363  -44.4622 -0.000601 -0.000042  0.000308 -0.000019  0.000002  0.000011 -0.000122  0.000071 -0.000005  0.000017
                                -0.000020 -0.000050  0.000009 -0.000005 -0.000005 -0.000106  0.000001 -0.000017  0.000078 -0.000005
                                 0.000100 -0.000014  0.000005  0.000016  0.000054  0.000012 -0.000158 -0.000136  0.000009 -0.000192
                                 0.000005 -0.000003 -0.000002 -0.000052  0.000038 -0.000092 -0.000356 -0.000016  0.000112 -0.000002
                                -0.000000 -0.000000 -0.000000 -0.000032  0.000066  0.000100  0.000010 -0.000071 -0.000001 -0.000003
                                 0.000001  0.000054  0.000028  0.000011  0.000243  0.000000  0.000106 -0.000001 -0.000000 -0.000000
                                -0.000038 -0.000031  0.000009  0.002989  0.000103 -0.000284  0.000030  0.000005 -0.000009 -0.000053
                                -0.000088  0.000175 -0.026074 -0.001074  0.004443  0.000087  0.000141 -0.000079 -0.001822 -0.000323
                                 0.000371 -0.107209 -0.002275 -0.001622 -0.000150  0.000155 -0.000063  0.001317 -0.000010 -0.000141
                                -0.462781 -0.011141  0.004310 -0.000077  0.000097 -0.000045  0.000983 -0.000200 -0.000015 -0.629229
                                -0.015634  0.008660 -0.000128  0.000234 -0.000122  0.000495 -0.001279  0.000676  0.156710  0.004018
                                -0.002280 -0.000061  0.000233 -0.000122  0.001077 -0.001739  0.000816  0.587601  0.014885 -0.009949
                                -0.000051  0.000228 -0.000139 -0.000261 -0.001694  0.001039  0.000001  0.000021  0.000035 -0.000063
                                -0.000003 -0.000026  0.000003  0.000016 -0.000003 -0.000017 -0.000002 -0.000004 -0.000033 -0.000035
                                 0.000056 -0.000461  0.000220 -0.000902  0.000226 -0.001161 -0.000046  0.000255 -0.000228  0.000810

   9.1   2   -11.2357  -44.6765  0.004039  0.000003  0.001471  0.000017 -0.000010 -0.000003 -0.000762  0.000316 -0.000683 -0.040354
                                -0.001910  0.009106 -0.000108 -0.000061  0.000168  0.003368  0.002131 -0.004084  0.138621  0.003228
                                -0.002940 -0.000008 -0.000003  0.000047 -0.001789 -0.000585 -0.000138  0.489577  0.012009 -0.003738
                                 0.000157  0.000037  0.000068  0.000532 -0.000053  0.000856  0.057690  0.001620 -0.005485  0.000079
                                 0.000027  0.000007 -0.001293  0.000440 -0.003067 -0.520283 -0.014121  0.017767  0.000325  0.000138
                                -0.000101 -0.005274 -0.002445  0.002242  0.676851  0.017829 -0.020860 -0.000145  0.000056 -0.000287
                                 0.004175 -0.000041  0.004855 -0.000567 -0.000035 -0.000937 -0.000011 -0.000005  0.000036  0.000255
                                -0.000192  0.000216  0.000063 -0.000036 -0.000005 -0.000038  0.000012  0.000015  0.000816 -0.000290
                                 0.000014 -0.000104 -0.000033  0.000447  0.000028  0.000017  0.000009 -0.000591 -0.000194  0.000123
                                 0.000288  0.000040 -0.000555 -0.000004 -0.000001 -0.000005 -0.000127  0.000296 -0.000110 -0.000093
                                -0.000024  0.000326 -0.000000  0.000005 -0.000003  0.000194 -0.000128  0.000037 -0.000008  0.000012
                                -0.000391 -0.000008  0.000001 -0.000000 -0.000155 -0.000093  0.000071  0.000057 -0.000022  0.000501
                                 0.000006  0.000002 -0.000005 -0.000026  0.000319 -0.000159  0.000042  0.000304 -0.000136 -0.000225
                                -0.000124  0.001336 -0.000062 -0.000354  0.000221  0.000183 -0.000241  0.000342  0.000006 -0.000005
                                -0.000005  0.000364 -0.000006 -0.000087  0.000010  0.000062 -0.000003 -0.000036  0.000015  0.000110

  10.1   2   -11.2356  -44.6315 -0.000531 -0.000035 -0.000928  0.000035 -0.000019 -0.000003  0.000106 -0.000178  0.000271  0.000075
                                -0.000037  0.000017  0.000025  0.000001 -0.000033 -0.000280 -0.000251  0.000697 -0.000162 -0.000033
                                 0.000403 -0.000014 -0.000026  0.000006  0.000434  0.000265 -0.000233  0.000135  0.000033 -0.000495
                                -0.000001  0.000006 -0.000002 -0.000120  0.000004 -0.000275 -0.000117 -0.000022  0.000285 -0.000004
                                 0.000000 -0.000004 -0.000013 -0.000054  0.000204  0.000163  0.000015 -0.000359  0.000003  0.000004
                                -0.000005  0.000159  0.000064 -0.000031 -0.000159 -0.000025  0.000459 -0.000006 -0.000000  0.000003
                                -0.000224 -0.000022 -0.000238  0.003806  0.000001  0.001464 -0.000009 -0.000001  0.000018 -0.000142
                                 0.000713 -0.000763 -0.038855 -0.001858  0.009037  0.000196 -0.000045 -0.000024 -0.005597  0.000380
                                 0.000690  0.135038  0.003137 -0.002907  0.000043 -0.000033  0.000000  0.001194  0.001234 -0.000820
                                 0.492239  0.012050 -0.003514 -0.000056 -0.000142  0.000083  0.000256 -0.000959  0.000487  0.089342
                                 0.002448 -0.006277 -0.000038 -0.000068  0.000041 -0.001757  0.002802 -0.001336 -0.545485 -0.014771
                                 0.018364 -0.000319 -0.000158  0.000129  0.005680  0.002175 -0.001913  0.652004  0.017224 -0.020677
                                -0.000144  0.000248 -0.000143  0.001062 -0.005571  0.003033  0.000008  0.000004 -0.000004  0.000316
                                -0.000005 -0.000074  0.000009  0.000056 -0.000002 -0.000031  0.000014  0.000100  0.000045  0.000295
                                -0.000137 -0.000238 -0.000127  0.001359 -0.000073 -0.000331  0.000230  0.000161 -0.000232  0.000289

  11.1   2   -11.2351  -44.3919 -0.000268  0.000122  0.000614  0.000005  0.000012 -0.000041 -0.000244 -0.000090  0.000191  0.003578
                                -0.000190  0.006008 -0.000104 -0.000035 -0.000065  0.001759  0.001342 -0.002687 -0.262714 -0.005854
                                -0.004967 -0.000044 -0.000021 -0.000067 -0.003387 -0.001727  0.002112 -0.628127 -0.016503  0.019578
                                -0.000269 -0.000047 -0.000154  0.005644  0.000899  0.003675  0.610482  0.016641 -0.022916 -0.000181
                                -0.000164  0.000343  0.002121  0.002865 -0.007319 -0.347217 -0.009762  0.017582  0.000196  0.000081
                                -0.000056 -0.006472 -0.002366  0.000591  0.189932  0.005480 -0.011774 -0.000128 -0.000010 -0.000095
                                 0.003177 -0.000156  0.004051 -0.000144 -0.000018  0.000063 -0.000008 -0.000005 -0.000019 -0.000364
                                 0.000202  0.000002 -0.000090  0.000011 -0.000034  0.000024 -0.000003 -0.000002 -0.000419  0.000233
                                -0.000155  0.001358  0.000075 -0.000291  0.000001 -0.000030 -0.000032  0.000244  0.000256 -0.000002
                                 0.001605  0.000019  0.000172 -0.000001  0.000004  0.000011  0.000059 -0.000156 -0.000013 -0.001635
                                -0.000038 -0.000049 -0.000001 -0.000004  0.000002 -0.000058  0.000057  0.000005  0.000879  0.000025
                                 0.000130  0.000006  0.000002  0.000000  0.000040 -0.000003 -0.000011 -0.000239 -0.000012 -0.000134
                                -0.000005  0.000001  0.000012  0.000067 -0.000130  0.000058  0.000007 -0.000041  0.000015 -0.001391
                                 0.000269 -0.000073 -0.000245 -0.000319  0.000148  0.000548 -0.000142 -0.000621  0.000014  0.000036
                                 0.000056 -0.000315  0.000001  0.000047 -0.000005 -0.000028 -0.000003  0.000000 -0.000010 -0.000056

  12.1   2   -11.2351  -44.4037 -0.000144 -0.000017  0.000084 -0.000006  0.000021 -0.000003  0.000103  0.000093 -0.000408 -0.000075
                                 0.000014 -0.000022 -0.000015 -0.000009  0.000020  0.000033  0.000220 -0.000493 -0.000001  0.000047
                                -0.000337 -0.000008  0.000036  0.000021 -0.000280 -0.000252  0.000002 -0.001910 -0.000075  0.000301
                                 0.000005 -0.000010 -0.000005  0.000067  0.000056  0.000183  0.001681  0.000054 -0.000181  0.000003
                                 0.000000  0.000004  0.000020  0.000017 -0.000127 -0.000997 -0.000028  0.000232 -0.000003 -0.000004
                                 0.000002 -0.000064 -0.000025  0.000032  0.000762  0.000016 -0.000203  0.000011 -0.000008 -0.000004
                                 0.000084 -0.000011  0.000170 -0.000303  0.000121  0.000598 -0.000037  0.000023 -0.000007  0.000317
                                -0.000002 -0.000077  0.004091 -0.000160  0.005891  0.000025  0.000114 -0.000048 -0.003342  0.000532
                                 0.000156 -0.260134 -0.005768 -0.005105 -0.000017  0.000080 -0.000018  0.004168  0.000870 -0.001036
                                -0.646937 -0.016970  0.019830  0.000065  0.000270 -0.000158 -0.001023 -0.005852  0.003336  0.599772
                                 0.016380 -0.022746  0.000410 -0.000087  0.000001 -0.007504  0.002977 -0.000755 -0.340544 -0.009567
                                 0.017274 -0.000180 -0.000085  0.000072  0.005014  0.003722 -0.002702  0.175994  0.005119 -0.011390
                                 0.000011  0.000131 -0.000081  0.001070 -0.004336  0.002349  0.000014  0.000037  0.000053 -0.000312
                                 0.000003  0.000047 -0.000006 -0.000032 -0.000002  0.000003 -0.000011 -0.000061  0.000005 -0.000056
                                 0.000016 -0.001387  0.000276 -0.000111 -0.000240 -0.000337  0.000145  0.000537 -0.000138 -0.000633

  13.1   2   -11.2335  -46.2481  0.002853  0.000037  0.001396  0.000016  0.000026  0.000008  0.000786  0.000475 -0.000989 -0.039605
                                -0.001983  0.011478  0.000104  0.000013  0.000279 -0.001425  0.001523 -0.007268  0.942104  0.024682
                                -0.026422  0.000380  0.000261 -0.000087 -0.007113 -0.003214  0.001538 -0.310333 -0.009124  0.017855
                                -0.000119  0.000031 -0.000293  0.003934 -0.000263  0.006241  0.075466  0.002423 -0.009390  0.000071
                                 0.000012  0.000054  0.001579  0.001667 -0.004029 -0.013991 -0.000760  0.006361  0.000036  0.000023
                                -0.000037 -0.003194 -0.001275  0.000673  0.011825  0.000510 -0.005642  0.000070  0.000025 -0.000030
                                 0.002246 -0.000068  0.002858 -0.000204  0.000036  0.000344 -0.000019  0.000036  0.000006  0.000565
                                -0.000184 -0.000285  0.001458  0.000163 -0.000617  0.000003  0.000007 -0.000060  0.000014 -0.000672
                                 0.000858 -0.034443 -0.001034  0.001381 -0.000061  0.000089  0.000151  0.000212 -0.000850 -0.000232
                                 0.011802  0.000350 -0.000213  0.000030 -0.000021 -0.000034 -0.000043  0.000209  0.000223 -0.002992
                                -0.000081  0.000080 -0.000006  0.000008  0.000004  0.000055 -0.000096 -0.000090  0.000608  0.000017
                                -0.000270 -0.000010 -0.000006 -0.000004 -0.000066  0.000092  0.000045 -0.000450 -0.000016 -0.000149
                                 0.000001 -0.000009 -0.000005 -0.000333  0.000089 -0.000137 -0.000005 -0.000042 -0.000311  0.000520
                                 0.000145  0.000797 -0.000083 -0.000708  0.000079  0.000761 -0.000093 -0.000788 -0.000001  0.000055
                                -0.000252  0.000479  0.000007  0.000007  0.000006  0.000019  0.000009  0.000015  0.000022  0.000079

  14.1   2   -11.2334  -46.2680  0.000024  0.000038  0.000467 -0.000002 -0.000011 -0.000038 -0.000364  0.000053  0.000439 -0.001440
                                 0.000020  0.000214 -0.000037  0.000040  0.000015  0.000785 -0.000201 -0.000009  0.034793  0.000778
                                -0.000541  0.000123 -0.000101 -0.000109 -0.000396  0.000229  0.000864 -0.010829 -0.000313  0.001072
                                -0.000038  0.000022  0.000013  0.000361 -0.000256  0.000271  0.002443  0.000093 -0.000594  0.000008
                                -0.000003 -0.000006  0.000068  0.000202 -0.000180 -0.000395 -0.000038  0.000188  0.000008  0.000013
                                -0.000005 -0.000206 -0.000134 -0.000061  0.000383  0.000022 -0.000549  0.000005  0.000010  0.000006
                                 0.000204  0.000214 -0.000083  0.002764  0.000041  0.001394 -0.000017 -0.000024 -0.000007 -0.001298
                                 0.000112  0.000164 -0.039419 -0.001980  0.011444  0.000124 -0.000262  0.000069 -0.004851  0.005279
                                -0.002206  0.944364  0.024718 -0.026347 -0.000402 -0.000233  0.000085  0.006512  0.003720 -0.002567
                                -0.304406 -0.008970  0.017721 -0.000147  0.000256 -0.000112  0.002198 -0.006308  0.003047  0.071600
                                 0.002318 -0.009255 -0.000012 -0.000079  0.000042 -0.004357  0.001409 -0.000218 -0.012930 -0.000727
                                 0.006257 -0.000056 -0.000001  0.000007  0.002799  0.001621 -0.001251  0.011120  0.000489 -0.005596
                                -0.000071 -0.000024  0.000030  0.000699 -0.003115  0.001647 -0.000001  0.000053 -0.000272  0.000496
                                 0.000018  0.000065  0.000001 -0.000030  0.000015  0.000070  0.000015  0.000021 -0.000005 -0.000038
                                -0.000331  0.000572  0.000144  0.000800 -0.000081 -0.000705  0.000079  0.000758 -0.000091 -0.000778

  15.1   2    -1.1662  -21.9858 -0.051690  0.102680  0.060961 -0.017514  0.011127 -0.012964  0.002978  0.001019 -0.001024 -0.079502
                                 0.157670  0.090023  0.004259  0.006455 -0.020230 -0.005156 -0.000432  0.001166 -0.065014  0.127121
                                 0.079640  0.038772  0.013398  0.002841  0.005525  0.003473 -0.003845 -0.055720  0.109769  0.058183
                                 0.024435 -0.000034  0.030332  0.003090  0.000852  0.000916 -0.053252  0.104429  0.063951 -0.007853
                                -0.012933  0.034780 -0.000758 -0.002271  0.006562 -0.055419  0.109399  0.057477 -0.034275 -0.014950
                                 0.011009 -0.001000 -0.000088  0.000236 -0.064031  0.125333  0.081671 -0.034990 -0.005018 -0.021520
                                -0.007400 -0.001211 -0.006892 -0.051606  0.102588  0.060519 -0.004408  0.012936 -0.020215 -0.003143
                                -0.001264  0.001554 -0.079007  0.156756  0.089401 -0.018863  0.009675 -0.002149  0.003740  0.002104
                                -0.003341 -0.064560  0.126259  0.078830 -0.025652 -0.026765  0.016999 -0.007011 -0.001181  0.001098
                                -0.055271  0.108866  0.057912  0.007100 -0.033739  0.017435 -0.001494 -0.002720  0.001604 -0.052809
                                 0.103565  0.063309  0.033876 -0.015659  0.004733  0.005832 -0.003378  0.001285 -0.054975  0.108516
                                 0.057121  0.033311  0.015182 -0.012475  0.000805  0.000289 -0.000587 -0.063563  0.124419  0.081115
                                 0.007090  0.034630 -0.020883  0.000175  0.009091 -0.004388  0.022230  0.000860  0.027573  0.002533
                                 0.020970  0.002342  0.019962  0.002938  0.020782  0.001460  0.025753  0.004979  0.022198  0.000778
                                 0.027481  0.002259  0.020804  0.002403  0.019789  0.002896  0.020608  0.001447  0.025577  0.004949

  16.1   2    -1.1568  -21.7502  0.016997 -0.031924 -0.028903 -0.013156 -0.007031  0.025767 -0.000968 -0.011313  0.024011  0.069765
                                -0.139598 -0.066089 -0.012120 -0.011442  0.034421 -0.004024 -0.006990  0.020938  0.063898 -0.125930
                                -0.069672 -0.040804 -0.015302  0.007021 -0.002626 -0.001556 -0.000864  0.062839 -0.123835 -0.074644
                                -0.029638 -0.001357 -0.031279 -0.002862  0.000672 -0.003687  0.062739 -0.123527 -0.073590  0.008508
                                 0.014752 -0.039993  0.001229  0.001617 -0.004727  0.064134 -0.126560 -0.076137  0.039362  0.016503
                                -0.010355  0.004212  0.001764 -0.001424  0.067220 -0.132289 -0.077250  0.032598  0.002446  0.028552
                                 0.001552  0.000937 -0.000291 -0.017474  0.032878  0.029549 -0.028128  0.009403  0.003160 -0.022355
                                 0.012062 -0.008047 -0.070337  0.140817  0.066300 -0.035574  0.014156 -0.000708 -0.019766  0.010200
                                -0.002707 -0.064292  0.126721  0.070131 -0.034802 -0.021726  0.017041 -0.001697 -0.002838  0.000822
                                -0.063181  0.124503  0.075021  0.004269 -0.038073  0.020295  0.001343 -0.003717  0.002512 -0.063083
                                 0.124201  0.074120  0.039152 -0.018568  0.005797  0.004735 -0.002148  0.000429 -0.064514  0.127313
                                 0.076522  0.036914  0.019053 -0.015066  0.004118  0.001752 -0.001557 -0.067684  0.133184  0.077948
                                -0.000164  0.037964 -0.021567  0.001588  0.001040 -0.000473 -0.009629 -0.006743 -0.023143 -0.002433
                                -0.024044 -0.002294 -0.024078 -0.002796 -0.024696 -0.002561 -0.026497 -0.000921  0.009850  0.006804
                                 0.023247  0.002595  0.024164  0.002271  0.024203  0.002816  0.024833  0.002551  0.026700  0.000954

  17.1   2    -1.0838  -21.3492 -0.114393  0.227254  0.140555 -0.055368  0.008249  0.018300 -0.000051 -0.001264  0.006612 -0.051543
                                 0.104752  0.061132 -0.016387 -0.020908  0.055119 -0.009344 -0.010708  0.031759  0.000655 -0.001900
                                 0.017827  0.000610 -0.013588  0.050916  0.009348  0.004038 -0.000347  0.049391 -0.097085 -0.079822
                                -0.035014 -0.011760 -0.000662 -0.006901 -0.000572 -0.007384  0.066780 -0.133264 -0.079690  0.005691
                                 0.011103 -0.030610 -0.000857 -0.001216  0.003106  0.052176 -0.102618 -0.085486  0.031044  0.005342
                                 0.018239  0.009829  0.004525 -0.002994  0.005183 -0.010615  0.012131 -0.022396 -0.019685  0.043168
                                -0.009097 -0.001030 -0.009640 -0.114442  0.227439  0.140282  0.038757  0.009789 -0.043143  0.004846
                                -0.004332  0.001197 -0.051538  0.104814  0.060823  0.056586 -0.023067  0.005148  0.031781 -0.013736
                                 0.001973  0.000704 -0.002002  0.017697  0.040797 -0.031389  0.011411 -0.007222 -0.006122  0.003539
                                 0.049449 -0.097207 -0.079765  0.024512  0.022802 -0.015672 -0.000880  0.008987 -0.004527  0.066853
                                -0.133415 -0.079738 -0.029296  0.014634 -0.004852  0.003115 -0.001319  0.000376  0.052256 -0.102789
                                -0.085403 -0.007352 -0.030821  0.018008 -0.009537 -0.004714  0.003477  0.005221 -0.010704  0.012072
                                 0.051154 -0.011886 -0.000184 -0.000754  0.011872 -0.005778  0.058333  0.008149  0.006040  0.005428
                                -0.023374 -0.005622 -0.031896 -0.003662 -0.024859 -0.006240  0.002551  0.006733  0.058404  0.008136
                                 0.006046  0.005359 -0.023400 -0.005624 -0.031929 -0.003679 -0.024894 -0.006244  0.002542  0.006723

  18.1   2    -1.0309  -21.1393 -0.040424  0.080226  0.052622  0.034942  0.014158 -0.054404  0.008191  0.005677 -0.016672 -0.090349
                                 0.183246  0.125842  0.021737  0.000209  0.008994  0.000754 -0.000359  0.001064 -0.018685  0.037844
                                 0.027482  0.024574 -0.012471  0.070141  0.002550 -0.000276  0.004657  0.061445 -0.122733 -0.092216
                                -0.046342 -0.021730  0.019573 -0.003933 -0.002021  0.001012  0.085861 -0.172104 -0.123677  0.017566
                                 0.012530 -0.020978  0.000489 -0.000210  0.001575  0.034726 -0.069080 -0.051224  0.029283 -0.007779
                                 0.061263  0.002818 -0.000244  0.004959 -0.051424  0.103142  0.078315 -0.049156 -0.027637  0.037955
                                -0.002183 -0.003434  0.006712  0.040552 -0.080499 -0.052886  0.062914 -0.016389 -0.012443  0.018616
                                -0.005722 -0.001087  0.090220 -0.183066 -0.125239  0.005934  0.017611 -0.015258 -0.000386  0.000999
                                -0.000865  0.018217 -0.036920 -0.026750 -0.040058  0.057502 -0.027560 -0.001886  0.004668 -0.002146
                                -0.061634  0.123116  0.092402 -0.048963 -0.018012  0.015770 -0.003889 -0.002119  0.001252 -0.085691
                                 0.171768  0.123346  0.030030 -0.000956 -0.002671 -0.000873  0.001308 -0.000531 -0.034396  0.068424
                                 0.050596 -0.029248  0.055445 -0.027253 -0.001985  0.004939 -0.002269  0.051657 -0.103602 -0.078639
                                -0.065973 -0.008506  0.013063 -0.007589  0.002370 -0.001121  0.027558  0.009090  0.010046  0.003037
                                -0.035022 -0.007783 -0.048925 -0.009367 -0.019553 -0.004477  0.032231  0.005491 -0.027697 -0.009212
                                -0.009673 -0.003052  0.035133  0.007826  0.048822  0.009355  0.019353  0.004437 -0.032392 -0.005506

  19.1   2    -1.0179  -20.7416 -0.003271  0.006525  0.003392  0.011619 -0.000516  0.001153  0.000030 -0.000604 -0.000027 -0.002257
                                 0.005215  0.001190  0.078712  0.017818  0.025946  0.015958  0.002166  0.005426  0.079881 -0.160439
                                -0.115211 -0.004781 -0.014964  0.042583  0.005786 -0.000072  0.005792  0.079853 -0.160308 -0.119626
                                 0.012266  0.015714 -0.041139  0.002163  0.000567 -0.000495  0.001666 -0.003386 -0.002162  0.074574
                                 0.018828  0.023369  0.005138  0.001375  0.001675 -0.077858  0.156308  0.117792 -0.005941 -0.015119
                                 0.044499  0.001831 -0.000189  0.002666 -0.080957  0.162837  0.116422  0.011665  0.015097 -0.038323
                                 0.005721  0.002298 -0.000585 -0.003295  0.006574  0.003378 -0.005315 -0.006067  0.008369  0.000284
                                 0.000380  0.000417 -0.002263  0.005208  0.001140 -0.033598 -0.063832  0.041220 -0.006005 -0.012545
                                 0.009455  0.078277 -0.157244 -0.112720  0.037897 -0.021615  0.008387  0.000684 -0.007006  0.004161
                                 0.078214 -0.157007 -0.117197 -0.041388  0.016710 -0.003767 -0.001754 -0.000840  0.001028  0.001654
                                -0.003360 -0.002113 -0.033603 -0.060418  0.037577 -0.002297 -0.004255  0.002530 -0.076203  0.152978
                                 0.115295  0.039920 -0.022358  0.007733  0.000901 -0.002701  0.001446 -0.079301  0.159514  0.113955
                                -0.038820  0.015192 -0.003713 -0.004555 -0.003354  0.002231  0.006541  0.003432 -0.049173 -0.008165
                                -0.047809 -0.009855 -0.001016 -0.000207  0.046735  0.009683  0.049293  0.009966  0.006564  0.003514
                                -0.048289 -0.007916 -0.046824 -0.009683 -0.001018 -0.000207  0.045735  0.009480  0.048308  0.009770

  20.1   2    -1.0149  -20.7805  0.005435 -0.011419 -0.004920  0.001439  0.000180  0.012942 -0.003246  0.000898  0.003246  0.019498
                                -0.039701 -0.028611  0.070840  0.018163  0.026799  0.011100  0.002483  0.004897  0.085415 -0.171740
                                -0.124119 -0.014195 -0.012128  0.030332  0.003538  0.000571  0.002440  0.068908 -0.138514 -0.104754
                                 0.022362  0.021408 -0.047216  0.003232  0.002050 -0.001478 -0.017095  0.034257  0.026264  0.072908
                                 0.017081  0.027522  0.005668  0.001327  0.001546 -0.085810  0.172371  0.129694 -0.011674 -0.012650
                                 0.029395  0.002367  0.000468  0.001517 -0.067357  0.135397  0.098797  0.024675  0.022531 -0.047213
                                 0.005420  0.002563 -0.001877 -0.005317  0.011191  0.004836 -0.007749  0.010460 -0.001408 -0.003568
                                 0.001213  0.002815 -0.019488  0.039672  0.028610  0.030280  0.063438 -0.037251  0.004128  0.010425
                                -0.006244 -0.087024  0.174990  0.126280 -0.035042  0.010275  0.000151  0.000569  0.003918 -0.002174
                                -0.070509  0.141719  0.107211  0.055553 -0.014370  0.001216  0.003824  0.001411 -0.000728  0.017085
                                -0.034235 -0.026261  0.030430  0.064411 -0.039377  0.002747  0.004559 -0.003038  0.087382 -0.175521
                                -0.132085 -0.033290  0.010557 -0.001950  0.000460  0.002517 -0.001362  0.068961 -0.138642 -0.101008
                                 0.057335 -0.012663  0.000439  0.005622  0.002522 -0.001919 -0.000854  0.001494 -0.049376 -0.009093
                                -0.041439 -0.008339  0.010297  0.002157  0.051913  0.010671  0.041034  0.008431  0.000600 -0.001650
                                 0.050321  0.009264  0.042395  0.008541 -0.010280 -0.002155 -0.052856 -0.010878 -0.042034 -0.008632

  21.1   2    -0.9790  -20.9833 -0.088233  0.175060  0.126819 -0.065783 -0.019301  0.085396 -0.004900 -0.005856  0.015803  0.056891
                                -0.113177 -0.109355 -0.021493 -0.027615  0.077485 -0.004603 -0.011600  0.035014  0.051568 -0.104540
                                -0.062416 -0.027180 -0.000393 -0.034565  0.014541  0.005909 -0.003593 -0.025742  0.052889  0.028897
                                 0.050289  0.031414 -0.049615 -0.002420  0.002338 -0.011886 -0.077448  0.155886  0.133318 -0.000780
                                -0.003039  0.007978 -0.001169 -0.000443  0.000098 -0.027180  0.055868  0.027220 -0.022181  0.013388
                                -0.072642  0.006929  0.005972 -0.012786  0.051979 -0.105287 -0.064421  0.040855  0.017954 -0.015227
                                -0.007236  0.003256 -0.018923 -0.088121  0.174857  0.126715  0.103526 -0.021929 -0.028954  0.016376
                                -0.006576  0.001147  0.057057 -0.113537 -0.109651  0.077694 -0.033786  0.006866  0.031862 -0.018182
                                 0.006021  0.051591 -0.104622 -0.062373 -0.008392  0.038734 -0.019319 -0.013351 -0.007228  0.005724
                                -0.025869  0.053146  0.029093 -0.076600 -0.002310  0.010833 -0.007819  0.008877 -0.003674 -0.077590
                                 0.156176  0.133588  0.007384 -0.004035  0.001829  0.000918  0.000717 -0.000492 -0.027183  0.055863
                                 0.027330 -0.043581  0.057939 -0.026764 -0.015307  0.003269  0.000163  0.052127 -0.105603 -0.064744
                                -0.041595 -0.016751  0.014894 -0.010328  0.015820 -0.007776  0.058629  0.014610 -0.030243  0.000645
                                 0.018025  0.002189  0.052817  0.013463  0.019148  0.002450 -0.029380  0.000822  0.058574  0.014606
                                -0.030341  0.000703  0.018100  0.002173  0.052897  0.013469  0.019133  0.002450 -0.029482  0.000778

  22.1   2    -0.8629  -20.3380 -0.072746  0.148541  0.102713  0.078350  0.010263 -0.069609  0.034299 -0.005173 -0.008193 -0.042893
                                 0.088418  0.069381  0.012557 -0.036167  0.116514 -0.012568 -0.017606  0.053184  0.055549 -0.112837
                                -0.089981  0.015110 -0.008961  0.047938  0.023173  0.006310  0.000715  0.003214 -0.005739 -0.013826
                                 0.073917  0.049151 -0.082805  0.010565  0.010016 -0.019879 -0.069460  0.141546  0.131388 -0.017336
                                 0.004473 -0.036922  0.000393  0.005342 -0.019264  0.030600 -0.061406 -0.058881 -0.032896  0.017146
                                -0.098599 -0.007685  0.002598 -0.016590  0.036970 -0.076106 -0.050031 -0.050097 -0.038699  0.070625
                                -0.021999 -0.010918  0.005833  0.072733 -0.148544 -0.102919  0.095498 -0.008021 -0.044649  0.022090
                                 0.008451 -0.027010  0.042876 -0.088456 -0.068929 -0.089227  0.075847 -0.037918 -0.051327  0.024719
                                -0.005215 -0.055842  0.113421  0.090742 -0.027879  0.037902 -0.017834  0.015501  0.014500 -0.011418
                                -0.002735  0.004768  0.012869  0.120861 -0.002665 -0.013465  0.024204 -0.004973  0.000463  0.069471
                                -0.141578 -0.131396  0.017257 -0.034035  0.016479  0.015872 -0.011596  0.004103 -0.031035  0.062307
                                 0.059335  0.056757 -0.080166  0.037426  0.007965 -0.014564  0.007561 -0.036699  0.075579  0.049513
                                -0.094843  0.010109  0.004933 -0.021955 -0.011115  0.007118  0.072300  0.022819 -0.045919 -0.006969
                                -0.000335 -0.001330  0.071166  0.022844 -0.027152 -0.009346 -0.023509 -0.002998 -0.072451 -0.022862
                                 0.046295  0.007004 -0.000128  0.001190 -0.071158 -0.022813  0.027592  0.009475  0.023174  0.002922

  23.1   2    -0.8310  -19.9426 -0.001865  0.004104  0.009399  0.050954 -0.007778  0.001986  0.017241 -0.002385  0.000949 -0.003305
                                 0.007800  0.000967  0.143979  0.029258  0.043713  0.035855  0.005847  0.008341  0.058816 -0.119745
                                -0.105747  0.019003  0.025175 -0.080841  0.023167  0.011515 -0.020359 -0.061645  0.125925  0.111850
                                 0.022580  0.025801 -0.068345 -0.007421  0.004786 -0.027805 -0.002132  0.004459  0.002602 -0.131846
                                -0.033359 -0.042803 -0.026422 -0.006254 -0.010131  0.064049 -0.131034 -0.112011 -0.014986 -0.024388
                                 0.065114 -0.021896 -0.013128  0.019394 -0.057031  0.116401  0.098866 -0.028719 -0.034904  0.081464
                                 0.007402 -0.008084  0.033562 -0.001563  0.003506  0.008598 -0.022295 -0.022483  0.040427 -0.007701
                                -0.007866  0.013625 -0.002909  0.006952  0.000209 -0.063632 -0.113765  0.078485 -0.016791 -0.025540
                                 0.020298  0.058168 -0.118451 -0.104640 -0.077251  0.038799 -0.007142 -0.032046 -0.001294  0.007033
                                -0.061385  0.125398  0.111288 -0.070002  0.027249 -0.004772 -0.016903  0.021695 -0.009205 -0.001739
                                 0.003652  0.001920  0.059487  0.109381 -0.067342  0.010752  0.022740 -0.013793  0.063447 -0.129809
                                -0.110861  0.063986 -0.029627  0.008993  0.031398  0.002141 -0.005024 -0.056784  0.115891  0.098583
                                 0.086736 -0.029767  0.007333  0.022542 -0.024366  0.011652  0.023155  0.010676 -0.070498 -0.020762
                                 0.067194  0.022014  0.002064  0.000410 -0.070953 -0.023021  0.065984  0.020911  0.022980  0.010654
                                -0.069875 -0.020514  0.066874  0.021894  0.001652  0.000282 -0.070259 -0.022793  0.065699  0.020830

  24.1   2    -0.8221  -19.8906 -0.006542  0.013539  0.020894 -0.012967 -0.005416 -0.026744 -0.014528 -0.004220 -0.000633 -0.020565
                                 0.042707  0.040718 -0.136605 -0.040151 -0.037263 -0.027549 -0.012156 -0.003781 -0.051497  0.105091
                                 0.093858  0.006478 -0.030218  0.103676 -0.013531 -0.012510  0.026365  0.068019 -0.138765 -0.123609
                                 0.003994 -0.015520  0.057276  0.015427 -0.003481  0.027955 -0.016216  0.033094  0.029216  0.133084
                                 0.035851  0.033716  0.028788  0.009499  0.002264 -0.050335  0.102787  0.091204 -0.001534  0.028579
                                -0.101022  0.013589  0.011801 -0.025671  0.067759 -0.138029 -0.126452 -0.006776  0.013630 -0.059456
                                -0.015272  0.003584 -0.029568  0.006417 -0.013302 -0.020415  0.008478 -0.029074  0.006380 -0.009725
                                -0.009665  0.007139  0.020941 -0.043452 -0.041586 -0.069850 -0.112180  0.066652 -0.018735 -0.021625
                                 0.010463  0.051603 -0.105307 -0.094071 -0.081977  0.066113 -0.029016 -0.031552  0.007226 -0.000368
                                -0.068541  0.139833  0.124549 -0.043882  0.037091 -0.015483 -0.012124  0.026541 -0.013907  0.016545
                                -0.033765 -0.029799  0.068224  0.105863 -0.067022  0.019095  0.019956 -0.013096  0.050501 -0.103127
                                -0.091445  0.082009 -0.062387  0.024444  0.030764 -0.006997 -0.000171 -0.068235  0.139016  0.127340
                                 0.043007 -0.041003  0.016192  0.013432 -0.027629  0.013963 -0.004212 -0.002492  0.054159  0.015717
                                -0.078446 -0.026636  0.018142  0.006031  0.056962  0.019322 -0.080313 -0.027080  0.004995  0.002881
                                -0.054200 -0.015667  0.079033  0.026829 -0.018472 -0.006136 -0.057094 -0.019357  0.080952  0.027315

[...]
                                 0.141697  0.039255 -0.036403  0.136239  0.047501 -0.002736  0.006893 -0.001295 -0.030061  0.065391
                                 0.031892 -0.018079  0.065067  0.031323  0.006895 -0.015851 -0.000932  0.062628 -0.093943 -0.045705
                                 0.027673 -0.089596 -0.035513 -0.003847  0.006629  0.047666  0.091524  0.179562  0.119833  0.070281
                                 0.186145  0.113539  0.003185 -0.002618 -0.031648 -0.047456 -0.095837 -0.151847 -0.080618 -0.106046
                                -0.143338  0.001133 -0.003201 -0.007021 -0.008797 -0.051982 -0.156231  0.037139 -0.063645 -0.118378
                                -0.000638  0.000173  0.033879  0.000582  0.006438  0.021732  0.022324 -0.002906  0.022067 -0.000340
                                 0.001185 -0.005027  0.021062  0.076846  0.131731  0.016113  0.083016  0.123330  0.002659 -0.006740
                                 0.001907 -0.004922  0.040631  0.067577  0.001958  0.045436  0.059368 -0.006691  0.015388  0.000582
                                 0.017271 -0.049364 -0.110690 -0.005112 -0.056268 -0.083966 -0.031662 -0.030916 -0.010425  0.007868
                                 0.005152  0.004614  0.002253  0.004972 -0.006563 -0.011604 -0.000932  0.009066  0.030878  0.029987
                                 0.010758 -0.007999 -0.005039 -0.004393 -0.002314 -0.005040  0.006434  0.011356  0.000824 -0.008756

  49.1  0.50466     0.045790     0.006072 -0.023400 -0.046770  0.082475  0.209627  0.080086  0.070267  0.332057  0.126293  0.003676
                                 0.003883 -0.112087 -0.057457  0.154342  0.032541 -0.063863  0.224068  0.090300 -0.006130  0.025076
                                 0.043884  0.066461 -0.132279 -0.016869  0.142062 -0.236361 -0.019640  0.001845 -0.003608  0.002750
                                 0.003987 -0.016175 -0.008558 -0.003172 -0.021626 -0.005991  0.001394 -0.004412  0.006933 -0.045843
                                 0.138497  0.037238 -0.069845  0.218242  0.057452 -0.003988  0.005419  0.060439  0.019441 -0.070852
                                -0.005720  0.037475 -0.110231  0.011946  0.010036 -0.021253 -0.086644  0.049068 -0.097172 -0.051914
                                 0.008451 -0.180251 -0.036637  0.006256 -0.023756 -0.048975 -0.094739 -0.196083 -0.097865 -0.119108
                                -0.279466 -0.194456  0.003681  0.003841 -0.112501 -0.023782 -0.071121 -0.150859 -0.017783 -0.143042
                                -0.205086 -0.005788  0.024018  0.041309  0.018141  0.045772  0.142239  0.030161  0.061901  0.270518
                                 0.001677 -0.003470  0.005988  0.000482  0.011734  0.013839  0.009593  0.014464  0.012638  0.001405
                                -0.004345  0.005831 -0.019002 -0.072396 -0.131880 -0.032351 -0.113801 -0.206333 -0.003831  0.005151
                                 0.058790  0.020514  0.029568  0.065388  0.041655  0.028038  0.106958  0.009677 -0.020551 -0.083466
                                -0.012146  0.061954  0.103263  0.059736  0.109205  0.135452  0.030046  0.112332  0.007514  0.022997
                                 0.005378  0.011344  0.001238  0.004081 -0.002458 -0.009840 -0.008176  0.051247  0.029677  0.111209
                                 0.007150  0.020924  0.005258  0.011102  0.001247  0.003978 -0.002270 -0.009242 -0.007972  0.050161


 Natural orbital dump (state averaged) at molpro section  2140.2    (Orbital set 2)


 ONE-PARTICLE DENSITY MATRIX FOR STATE 1
 =======================================

  
                   1             2
         1     1.9906879    -0.0001025
         2    -0.0001025     0.0093121

 NATURAL ORBITALS
 ================

  48 1.9906879 SYM 1  E-VEC   1.0000000 -0.0000518

                      COEFFS  0.0037178 -0.0062347 -0.0475970  0.0570572  0.2175363  0.0701687  0.0534804  0.2054643  0.0892439
                             -0.0031525  0.0025467  0.0317039  0.0326721 -0.1783434 -0.0355129  0.0026080 -0.1939533 -0.0209862
                             -0.0014846  0.0039358  0.0082714  0.0778714 -0.1419867 -0.0275701  0.0709845 -0.0969528 -0.0696880
                              0.0008002 -0.0005307 -0.0350140 -0.0113826  0.0190197  0.0030921 -0.0039691  0.0257850 -0.0185390
                              0.0003070 -0.0011340  0.0052227 -0.0426621  0.1416539  0.0392435 -0.0363808  0.1361708  0.0474834
                             -0.0027346  0.0068910 -0.0013137 -0.0300668  0.0654134  0.0318937 -0.0180909  0.0651015  0.0313190
                              0.0068923 -0.0158447 -0.0009047  0.0626126 -0.0939125 -0.0456890  0.0276707 -0.0895391 -0.0355019
                             -0.0038494  0.0066363  0.0476810  0.0915538  0.1796238  0.1198636  0.0703180  0.1862323  0.1135999
                              0.0031841 -0.0026187 -0.0316124 -0.0474484 -0.0958146 -0.1517995 -0.0806126 -0.1060009 -0.1432734
                              0.0011352 -0.0032087 -0.0070336 -0.0088028 -0.0519968 -0.1562761  0.0371292 -0.0636645 -0.1184624
                             -0.0006388  0.0001742  0.0338767  0.0005817  0.0064348  0.0217279  0.0223215 -0.0029106  0.0220626
                             -0.0003407  0.0011860 -0.0050291  0.0210683  0.0768686  0.1317727  0.0161227  0.0830520  0.1233949
                              0.0026599 -0.0067415  0.0018887 -0.0049284  0.0406216  0.0675561  0.0019448  0.0454276  0.0593342
                             -0.0066937  0.0153948  0.0006083  0.0172751 -0.0493833 -0.1107223 -0.0051303 -0.0563018 -0.0840081
                             -0.0316710 -0.0309512 -0.0104278  0.0078606  0.0051508  0.0046100  0.0022527  0.0049707 -0.0065620
                             -0.0116010 -0.0009290  0.0090502  0.0308683  0.0299520  0.0107558 -0.0080056 -0.0050408 -0.0043960
                             -0.0023142 -0.0050410  0.0064352  0.0113592  0.0008268 -0.0087720

  49 0.0093121 SYM 1  E-VEC   0.0000518  1.0000000

                      COEFFS  0.0060727 -0.0234016 -0.0467852  0.0824931  0.2096947  0.0801075  0.0702835  0.3321212  0.1263210
                              0.0036750  0.0038837 -0.1120775 -0.0574468  0.1542866  0.0325296 -0.0638624  0.2240076  0.0902935
                             -0.0061303  0.0250775  0.0438869  0.0664852 -0.1323235 -0.0168774  0.1420846 -0.2363918 -0.0196614
                              0.0018455 -0.0036082  0.0027388  0.0039830 -0.0161688 -0.0085570 -0.0031735 -0.0216177 -0.0059967
                              0.0013940 -0.0044124  0.0069343 -0.0458561  0.1385411  0.0372499 -0.0698566  0.2182847  0.0574673
                             -0.0039892  0.0054210  0.0604388  0.0194315 -0.0708311 -0.0057099  0.0374698 -0.1102110  0.0119559
                              0.0100380 -0.0212584 -0.0866446  0.0490874 -0.0972012 -0.0519288  0.0084597 -0.1802794 -0.0366483
                              0.0062543 -0.0237539 -0.0489596 -0.0947108 -0.1960270 -0.0978270 -0.1190862 -0.2794080 -0.1944207
                              0.0036820  0.0038398 -0.1125110 -0.0237972 -0.0711508 -0.1509063 -0.0178084 -0.1430751 -0.2051314
                             -0.0057872  0.0240172  0.0413070  0.0181385  0.0457560  0.1421898  0.0301725  0.0618807  0.2704805
                              0.0016768 -0.0034696  0.0059982  0.0004824  0.0117364  0.0138462  0.0095999  0.0144632  0.0126444
                              0.0014054 -0.0043451  0.0058295 -0.0189957 -0.0723723 -0.1318384 -0.0323460 -0.1137746 -0.2062942
                             -0.0038302  0.0051492  0.0587910  0.0205121  0.0295810  0.0654091  0.0416554  0.0280522  0.1069767
                              0.0096753 -0.0205465 -0.0834663 -0.0121407  0.0619383  0.1032286  0.0597341  0.1091873  0.1354261
                              0.0300361  0.1123222  0.0075111  0.0229997  0.0053794  0.0113457  0.0012384  0.0040821 -0.0024603
                             -0.0098438 -0.0081760  0.0512501  0.0296865  0.1112181  0.0071538  0.0209211  0.0052568  0.0111006
                              0.0012463  0.0039767 -0.0022684 -0.0092385 -0.0079718  0.0501579

 ONE-PARTICLE TRANSITION DENSITY MATRIX FOR STATES 2 1
 =====================================================

  
                   1             2
         1     0.0001241    -0.0964990
         2     1.4109173    -0.0001241

 ONE-PARTICLE DENSITY MATRIX FOR STATE 2
 =======================================

  
                   1             2
         1     0.9999999     0.0006210
         2     0.0006210     1.0000001

 NATURAL ORBITALS
 ================

  48 1.0006210 SYM 1  E-VEC   0.7070477  0.7071659

                      COEFFS  0.0069232 -0.0209576 -0.0667382  0.0986794  0.3020972  0.1062623  0.0875159  0.3801425  0.1524309
                              0.0003701  0.0045471 -0.0568465 -0.0175269 -0.0169789 -0.0021030 -0.0433198  0.0212916  0.0490183
                             -0.0053850  0.0205175  0.0368848  0.1020744 -0.1939656 -0.0314281  0.1506694 -0.2357236 -0.0631748
                              0.0018709 -0.0029269 -0.0228185 -0.0052308  0.0020125 -0.0038654 -0.0050505  0.0029422 -0.0173481
                              0.0012029 -0.0039222  0.0085964 -0.0625921  0.1981275  0.0540888 -0.0751244  0.2506458  0.0742123
                             -0.0047545  0.0087058  0.0418136 -0.0075156 -0.0038439  0.0185112  0.0137082 -0.0319140  0.0305981
                              0.0119718 -0.0262364 -0.0619149  0.0789826 -0.1351381 -0.0690268  0.0255462 -0.1907992 -0.0510180
                              0.0017015 -0.0121069 -0.0009134 -0.0022502 -0.0116348  0.0155614 -0.0345025 -0.0659298 -0.0571784
                              0.0048551  0.0008641 -0.1019184 -0.0503760 -0.1180600 -0.2140452 -0.0695881 -0.1761269 -0.2463653
                             -0.0032902  0.0147164  0.0242396  0.0066039 -0.0044035 -0.0099319  0.0475889 -0.0012494  0.1075303
                              0.0007342 -0.0023306  0.0281931  0.0007524  0.0128494  0.0251539  0.0225706  0.0081706  0.0245407
                              0.0007530 -0.0022344  0.0005670  0.0014617  0.0031651 -0.0000717 -0.0114763 -0.0217430 -0.0586502
                             -0.0008282 -0.0011247  0.0429125  0.0110217  0.0496397  0.0940204  0.0308338  0.0519564  0.1176042
                              0.0021099 -0.0036463 -0.0585975  0.0036277  0.0088884 -0.0052783  0.0386170  0.0374116  0.0363790
                             -0.0011501  0.0575517 -0.0020607  0.0218230  0.0074460  0.0112830  0.0024685  0.0064012 -0.0063794
                             -0.0151636 -0.0064389  0.0426428  0.0428186  0.0998302  0.0126637  0.0091354  0.0001537  0.0047423
                             -0.0007547 -0.0007517  0.0029455  0.0014976 -0.0050531  0.0292699

  49 0.9993790 SYM 1  E-VEC   0.7071659 -0.7070477

                      COEFFS -0.0016642  0.0121360 -0.0005830 -0.0179726  0.0055857 -0.0070134 -0.0118697 -0.0895085 -0.0261968
                             -0.0048277 -0.0009448  0.1016611  0.0637213 -0.2352072 -0.0481136  0.0469958 -0.2955401 -0.0786800
                              0.0032843 -0.0149467 -0.0251790  0.0080651 -0.0068592 -0.0075651 -0.0502550  0.0985663 -0.0353827
                             -0.0007389  0.0021758 -0.0266983 -0.0108658  0.0248823  0.0082366 -0.0005633  0.0335191 -0.0088711
                             -0.0007684  0.0023176 -0.0012091  0.0022500  0.0022279  0.0014170  0.0236608 -0.0580294 -0.0070496
                              0.0008865  0.0010406 -0.0436599 -0.0350016  0.0963389  0.0265923 -0.0392855  0.1239604  0.0136960
                             -0.0022227  0.0038245  0.0606189  0.0095744  0.0023072  0.0044028  0.0135877  0.0641373  0.0008037
                             -0.0071442  0.0214875  0.0683351  0.1317086  0.2656236  0.1539326  0.1339243  0.3292485  0.2177957
                             -0.0003514 -0.0045668  0.0571902 -0.0167308 -0.0174559 -0.0006605 -0.0444187  0.0261916  0.0437069
                              0.0048944 -0.0192496 -0.0341787 -0.0190495 -0.0691223 -0.2110486  0.0049256 -0.0887740 -0.2750096
                             -0.0016373  0.0025762  0.0197168  0.0000703 -0.0037471  0.0055766  0.0089986 -0.0122840  0.0066630
                             -0.0012346  0.0039108 -0.0076781  0.0283297  0.1055296  0.1864012  0.0342710  0.1391745  0.2331175
                              0.0045891 -0.0084082 -0.0402302 -0.0179877  0.0078136  0.0015309 -0.0280755  0.0122933 -0.0336724
                             -0.0115743  0.0254139  0.0594417  0.0208006 -0.0787151 -0.1512868 -0.0458609 -0.1170134 -0.1551585
                             -0.0436336 -0.1013018 -0.0126850 -0.0107020 -0.0001606 -0.0047613  0.0007175  0.0006292 -0.0029012
                             -0.0012445  0.0051235 -0.0298341  0.0008414 -0.0574503  0.0025487 -0.0204530 -0.0072814 -0.0109571
                             -0.0025178 -0.0063766  0.0061548  0.0145650  0.0062209 -0.0416658


 **********************************************************************************************************************************
 DATASETS  * FILE   NREC   LENGTH (MB)   RECORD NAMES
              1      20      353.18       500      610      700      900      950      970     1000      129      960     1100   
                                          VAR    BASINP    GEOM    SYMINP    ZMAT    AOBASIS   BASIS     P2S    ABASIS      S 
                                         1400     1410     1200     1210     1080     1600     1650     1700     1380     5100   
                                           T        V       H0       H01     AOSYM     SMH    MOLCAS    OPER     JKOP    CPSAMC    

              2       5        7.14       700     1000      520     2100     2140   
                                         GEOM     BASIS   MCVARS     RHF     MCSCF   

 PROGRAMS   *        TOTAL    CASSCF        HF       INT
 CPU TIMES  *        98.38     93.12      2.05      2.87
 REAL TIME  *       149.23 SEC
 DISK USED  *       748.02 MB      
 SF USED    *         1.45 GB      
 GA USED    *         0.01 MB       (max)       0.00 MB       (current)
 **********************************************************************************************************************************


 PROGRAM * OPT (Geometry optimization)     Authors: F. Eckert and H.-J. Werner


 BFGS update of hessian

 *** Long output written to logfile /home/debashree/Manadip/cis_stilbene_casscf_s1_opt_1_re.log ***


 Geometry optimization using default procedure for command CASSCF

 Geometry written to block  1 of record 700

 Making model hessian for cartesian coordinates

 Entering Rational Function Geometry Optimization

 ITER.   ENERGY(OLD)    ENERGY(NEW)      DE          GRADMAX     GRADNORM    GRADRMS     STEPMAX     STEPLEN     STEPRMS   CPU-time
   1  -536.94653254  -536.94717449    -0.00064195  0.01055328  0.02061442  0.00028631  0.27810896  0.29799403  0.05844144     96.43
   2  -536.94717449  -536.94725778    -0.00008329  0.00435761  0.00706899  0.00009818  0.07341434  0.09208185  0.01805874    197.05
   3  -536.94725778  -536.94729352    -0.00003574  0.00070675  0.00212613  0.00002953  0.08613085  0.10596069  0.02078060    299.49
   4  -536.94729352  -536.94733576    -0.00004224  0.00067698  0.00194510  0.00002702  0.18610287  0.19615621  0.03846940    389.43
   5  -536.94733576  -536.94736876    -0.00003300  0.00123348  0.00183721  0.00002552  0.19150575  0.20576658  0.04035415    478.54
   6  -536.94736876  -536.94740899    -0.00004023  0.00111394  0.00200159  0.00002780  0.25576101  0.30000000  0.05883484    566.69
   7  -536.94740899  -536.94743596    -0.00002697  0.00111375  0.00252316  0.00003504  0.17060858  0.23319473  0.04573325    654.29
   8  -536.94743596  -536.94744479    -0.00000883  0.00084410  0.00219476  0.00003048  0.07318000  0.10839636  0.02125828    740.48
   9  -536.94744479  -536.94744734    -0.00000255  0.00067663  0.00129147  0.00001794  0.05355824  0.06125509  0.01201311    841.43
  10  -536.94744734  -536.94744875    -0.00000141  0.00039057  0.00085056  0.00001181  0.02994396  0.03226494  0.00632768    943.37
  11  -536.94744875  -536.94744924    -0.00000049  0.00020790  0.00052486  0.00000729  0.00875893  0.01328275  0.00260496   1022.61

 END OF GEOMETRY OPTIMIZATION.

 Current geometry (xyz format, in Angstrom)

   26
 CASSCF000/6-31G  ENERGY=-536.94744924
 C          0.9969540328       -0.2868566687        0.9820034672
 C          1.2255329922        0.2300707747       -0.3866899366
 C          0.2888906476        0.0823619484       -1.4096366589
 C          0.5612265516        0.5401625242       -2.6892631849
 C          1.7747934282        1.1514985900       -2.9727872637
 C          2.7197938408        1.2936365410       -1.9679384091
 C          2.4489834392        0.8295243354       -0.6896838899
 C         -0.1046063553       -0.2563015973        1.7364349441
 C         -1.4097047427        0.3968292552        1.4866511605
 C         -1.5165276990        1.6721915660        0.9318445769
 C         -2.7568329770        2.2656659611        0.7570829386
 C         -3.9139654921        1.5987775090        1.1354896491
 C         -3.8212829548        0.3355020764        1.6998790327
 C         -2.5796530346       -0.2547290147        1.8802076845
 H          1.8569521856       -0.7687099280        1.4151457421
 H         -0.6480629841       -0.3955690927       -1.2044995519
 H         -0.1704838705        0.4145722225       -3.4642704227
 H          1.9828346536        1.5046785005       -3.9644577434
 H          3.6641040904        1.7584548028       -2.1777444521
 H          3.1892976180        0.9354368113        0.0815559877
 H         -0.0484464212       -0.7701688639        2.6809807768
 H         -0.6297119993        2.2003261697        0.6439361263
 H         -2.8188626300        3.2490158516        0.3316532953
 H         -4.8727183264        2.0609517601        0.9990721928
 H         -4.7089573634       -0.1861617500        2.0026996630
 H         -2.5151766297       -1.2299402846        2.3262042754

 **********************************************************************************************************************************

 Geometry written to block  1 of record 700


 **********************************************************************************************************************************
 DATASETS  * FILE   NREC   LENGTH (MB)   RECORD NAMES
              1      20      353.18       500      610      700      900      950      970     1000      129      960     1100   
                                          VAR    BASINP    GEOM    SYMINP    ZMAT    AOBASIS   BASIS     P2S    ABASIS      S 
                                         1400     1410     1200     1210     1080     1600     1650     1700     1380     5100   
                                           T        V       H0       H01     AOSYM     SMH    MOLCAS    OPER     JKOP    CPSAMC    

              2       5        7.14       700     1000      520     2100     2140   
                                         GEOM     BASIS   MCVARS     RHF     MCSCF   

 PROGRAMS   *        TOTAL      OPTG    CASSCF        HF       INT
 CPU TIMES  *      1121.05   1022.63     93.12      2.05      2.87
 REAL TIME  *      1651.44 SEC
 DISK USED  *         2.11 GB      
 SF USED    *         1.45 GB      
 GA USED    *         0.01 MB       (max)       0.00 MB       (current)
 **********************************************************************************************************************************

 CASSCF/6-31G//CASSCF/6-31G energy=   -536.724416273740

    OPTG(CASSCF)        CASSCF          HF-SCF  
   -536.94744924   -536.73492033   -536.94598561
 **********************************************************************************************************************************
 Molpro calculation terminated
 Variable memory released
