                  Welcome to Q-Chem
     A Quantum Leap Into The Future Of Chemistry


 Q-Chem 5.4 (devel), Q-Chem, Inc., Pleasanton, CA (2021)

 Yihan Shao,  Zhengting Gan,  E. Epifanovsky,  A. T. B. Gilbert,  M. Wormit,  
 J. Kussmann,  A. W. Lange,  A. Behn,  Jia Deng,  Xintian Feng,  D. Ghosh,  
 M. Goldey,  P. R. Horn,  L. D. Jacobson,  I. Kaliman,  T. Kus,  A. Landau,  
 Jie Liu,  E. I. Proynov,  R. M. Richard,  R. P. Steele,  E. J. Sundstrom,  
 H. L. Woodcock III,  P. M. Zimmerman,  D. Zuev,  B. Alam,  B. Albrecht,  
 A. Aldossary,  E. Alguire,  J. H. Andersen,  S. A. Baeppler,  D. Barton,  
 K. Begam,  Z. Benda,  Y. A. Bernard,  E. J. Berquist,  K. B. Bravaya,  
 H. Burton,  K. Carter-Fenk,  D. Casanova,  R. Chakraborty,  Chun-Min Chang,  
 Yunqing Chen,  A. Chien,  K. D. Closser,  V. Cofer-Shabica,  M. P. Coons,  
 S. Coriani,  S. Dasgupta,  A. L. Dempwolff,  M. Diedenhofen,  Hainam Do,  
 R. G. Edgar,  S. Ehlert,  Po-Tung Fang,  S. Faraji,  S. Fatehi,  
 Qingguo Feng,  J. Fosso-Tande,  J. Gayvert,  Qinghui Ge,  A. Ghysels,  
 G. Gidofalvi,  J. Gomes,  J. Gonthier,  C. Gonzalez-Espinoza,  S. Gulania,  
 A. Gunina,  D. Hait,  M. W. D. Hanson-Heine,  S. Hammes-Schiffer,  
 P. H. P. Harbach,  A. W. Hauser,  M. F. Herbst,  J. E. Herr,  
 E. G. Hohenstein,  Z. C. Holden,  S. Houck,  Xunkun Huang,  Kerwin Hui,  
 B. C. Huynh,  M. Ivanov,  T.-C. Jagau,  Hyunjun Ji,  Hanjie Jiang,  
 S. Kaehler,  B. Kaduk,  K. Khistyaev,  Jaehoon Kim,  P. Klunzinger,  K. Koh,  
 D. Kosenkov,  L. Koulias,  T. Kowalczyk,  C. M. Krauter,  A. Kunitsa,  
 Ka Un Lao,  A. Laurent,  K. V. Lawler,  Joonho Lee,  D. Lefrancois,  
 S. Lehtola,  D. S. Levine,  Rain Li,  Yi-Pei Li,  Jiashu Liang,  
 M. Liebenthal,  You-Sheng Lin,  Fenglai Liu,  Kuan-Yu Liu,  E. Livshits,  
 M. Loipersberger,  A. Luenser,  A. Manjanath,  P. Manohar,  E. Mansoor,  
 S. F. Manzer,  Shan-Ping Mao,  Yuezhi Mao,  N. Mardirossian,  
 A. V. Marenich,  T. Markovich,  L. A. Martinez-Martinez,  S. A. Maurer,  
 N. J. Mayhall,  S. Mason,  S. C. McKenzie,  P. F. McLaughlin,  
 M. F. S. J. Menger,  J.-M. Mewes,  P. Morgante,  A. F. Morrison,  
 J. W. Mullinax,  K. Nanda,  T. S. Nguyen-Beck,  R. Olivares-Amaya,  
 K. J. Oosterbaan,  G. Paran,  J. A. Parkhill,  Alexander C. Paul,  
 Suranjan K. Paul,  F. Pavosevic,  Zheng Pei,  T. M. Perrine,  F. Plasser,  
 P. Pokhilko,  S. Prager,  A. Prociuk,  E. Ramos,  B. Rana,  A. E. Rask,  
 A. Rettig,  D. R. Rehn,  F. Rob,  E. Rossomme,  T. Scheele,  M. Scheurer,  
 M. Schneider,  N. Sergueev,  S. M. Sharada,  S. Sharma,  W. Skomorowski,  
 D. W. Small,  T. Stauch,  C. J. Stein,  T. Stein,  Yu-Chuan Su,  
 S. P. Veccham,  Zhen Tao,  A. J. W. Thom,  A. Tkatchenko,  T. Tsuchimochi,  
 N. M. Tubman,  M. H. Vera,  M. L. Vidal,  L. Vogt,  O. Vydrov,  
 M. A. Watson,  J. Wenzel,  M. de Wergifosse,  T. A. Wesolowski,  A. White,  
 J. Witte,  A. Yamada,  Jun Yang,  K. Yao,  S. Yeganeh,  S. R. Yost,  
 Zhi-Qiang You,  A. Zech,  Igor Ying Zhang,  Yu Zhang,  Xing Zhang,  
 Yan Zhao,  Ying Zhu,  B. R. Brooks,  G. K. L. Chan,  C. J. Cramer,  
 M. S. Gordon,  S. Grimme,  W. J. Hehre,  A. Klamt,  M. W. Schmidt,  
 C. D. Sherrill,  D. G. Truhlar,  A. Aspuru-Guzik,  R. Baer,  A. T. Bell,  
 N. A. Besley,  Jeng-Da Chai,  A. E. DePrince, III,  R. A. DiStasio Jr.,  
 A. Dreuw,  B. D. Dunietz,  T. R. Furlani,  Chao-Ping Hsu,  Yousung Jung,  
 Jing Kong,  D. S. Lambrecht,  WanZhen Liang,  C. Ochsenfeld,  
 V. A. Rassolov,  L. V. Slipchenko,  J. E. Subotnik,  T. Van Voorhis,  
 J. M. Herbert,  A. I. Krylov,  P. M. W. Gill,  M. Head-Gordon

 Contributors to earlier versions of Q-Chem not listed above: 
 R. D. Adamson,  B. Austin,  J. Baker,  G. J. O. Beran,  K. Brandhorst,  
 S. T. Brown,  E. F. C. Byrd,  A. K. Chakraborty,  C.-L. Cheng,  
 Siu Hung Chien,  D. M. Chipman,  D. L. Crittenden,  H. Dachsel,  
 R. J. Doerksen,  A. D. Dutoi,  L. Fusti-Molnar,  W. A. Goddard III,  
 A. Golubeva-Zadorozhnaya,  S. R. Gwaltney,  G. Hawkins,  A. Heyden,  
 S. Hirata,  G. Kedziora,  F. J. Keil,  C. Kelley,  Jihan Kim,  R. A. King,  
 R. Z. Khaliullin,  P. P. Korambath,  W. Kurlancheek,  A. M. Lee,  M. S. Lee,  
 S. V. Levchenko,  Ching Yeh Lin,  D. Liotard,  R. C. Lochan,  I. Lotan,  
 P. E. Maslen,  N. Nair,  D. P. O'Neill,  D. Neuhauser,  E. Neuscamman,  
 C. M. Oana,  R. Olson,  B. Peters,  R. Peverati,  P. A. Pieniazek,  
 Y. M. Rhee,  J. Ritchie,  M. A. Rohrdanz,  E. Rosta,  N. J. Russ,  
 H. F. Schaefer III,  N. E. Schultz,  N. Shenvi,  A. C. Simmonett,  A. Sodt,  
 D. Stuck,  K. S. Thanthiriwatte,  V. Vanovschi,  Tao Wang,  A. Warshel,  
 C. F. Williams,  Q. Wu,  X. Xu,  W. Zhang

 Please cite Q-Chem as follows:
 Y. Shao et al., Mol. Phys. 113, 184-215 (2015)
 DOI: 10.1080/00268976.2014.952696

 Q-Chem 5.4.0 for Intel X86 EM64T Linux

 Parts of Q-Chem use Armadillo 9.800.1 (Horizon Scraper).
 http://arma.sourceforge.net/

 Q-Chem begins on Fri Jun 21 11:22:06 2024  

node15
Host: 0

     Scratch files written to /scratch/debashree/qchem28660//
Processing $rem in /home/debashree/Qchem5.3/qchem5.3/config/preferences:
Processing $rem in /home/debashree/.qchemrc:

Checking the input file for inconsistencies... 	...done.

--------------------------------------------------------------
User input:
--------------------------------------------------------------
$molecule
0 1
 C                 -1.42235400    0.95064340    0.38484840
 C                 -2.68142010    1.65750270    0.10061490
 C                 -2.72832573    2.92115567   -0.49192406
 C                 -3.93980454    3.53953622   -0.75137052
 C                 -5.13287995    2.91488728   -0.41646156
 C                 -5.10259398    1.66661635    0.18523941
 C                 -3.88987428    1.04829400    0.44291145
 C                 -0.25343480    1.13267340   -0.23687830
 C                  1.00782360    0.43216310    0.05333690
 C                  1.58324376    0.39530919    1.32520996
 C                  2.76556431   -0.28937351    1.55039611
 C                  3.40645066   -0.94518577    0.50878730
 C                  2.85543791   -0.90579348   -0.76242717
 C                  1.67153600   -0.22187120   -0.98608345
 H                 -1.49408230    0.20263320    1.15337710
 H                 -1.81841155    3.43264597   -0.73611540
 H                 -3.95262716    4.51143774   -1.20569115
 H                 -6.06992556    3.39746244   -0.61514103
 H                 -6.01825071    1.17603788    0.45342945
 H                 -3.87725795    0.08057735    0.90796621
 H                 -0.19899920    1.83039680   -1.05267250
 H                  1.11836723    0.91575020    2.13898324
 H                  3.19114016   -0.30322720    2.53520928
 H                  4.32412104   -1.47174532    0.68492410
 H                  3.34466072   -1.40441432   -1.57671107
 H                  1.25210265   -0.19856160   -1.97423450
$end

$rem
JOBTYPE			= opt
METHOD  		= B3LYP
BASIS   		= 6-31G*
GEOM_OPT_MAX_CYCLES 	= 250
MAX_SCF_CYCLES 		= 200
SYMMETRY 		= false
MEM_TOTAL 		= 6400
MEM_STATIC 		= 2000
$end
--------------------------------------------------------------
 ----------------------------------------------------------------
             Standard Nuclear Orientation (Angstroms)
    I     Atom           X                Y                Z
 ----------------------------------------------------------------
    1      C       0.4795126381    -0.4520058260     0.0627028822
    2      C       1.9303497975    -0.2096546978     0.0177177270
    3      C       2.5030543285     0.8569257221    -0.6783692745
    4      C       3.8742041932     1.0501487071    -0.6792659129
    5      C       4.7067095752     0.1773204540     0.0069446039
    6      C       4.1546030103    -0.8943550272     0.6909267791
    7      C       2.7824571814    -1.0857195094     0.6923191839
    8      C      -0.4820873229     0.4593136586    -0.1130054511
    9      C      -1.9328993068     0.2152846752    -0.0768566347
   10      C      -2.5642641801    -0.7416466184    -0.8742201328
   11      C      -3.9318664713    -0.9430440319    -0.7936959772
   12      C      -4.7027963206    -0.1868103008     0.0778266321
   13      C      -4.0929412576     0.7769227290     0.8655121540
   14      C      -2.7242845043     0.9762659141     0.7852841327
   15      H       0.2031147211    -1.4656713131     0.2893899855
   16      H       1.8809261229     1.5288942795    -1.2356935124
   17      H       4.2932007696     1.8751912524    -1.2223228956
   18      H       5.7687712701     0.3270040277     0.0017894126
   19      H       4.7884385375    -1.5788222383     1.2208112394
   20      H       2.3645262181    -1.9180914311     1.2265488256
   21      H      -0.2059620881     1.4861908142    -0.2697840092
   22      H      -1.9917865757    -1.3196858278    -1.5723147175
   23      H      -4.3966886298    -1.6824344962    -1.4169180972
   24      H      -5.7624881160    -0.3420832451     0.1357202399
   25      H      -4.6793362024     1.3714785724     1.5390582084
   26      H      -2.2612241910     1.7243545124     1.4007910502
 ----------------------------------------------------------------
 Molecular Point Group                 C1    NOp =  1
 Largest Abelian Subgroup              C1    NOp =  1
 Nuclear Repulsion Energy =         734.63106267 hartrees
 There are       48 alpha and       48 beta electrons
 Requested basis set is 6-31G(d)
 There are 80 shells and 234 basis functions

 Total QAlloc Memory Limit   6400 MB
 Mega-Array Size      1956 MB
 MEM_STATIC part      2000 MB
 A cutoff of  1.0D-11 yielded   2200 shell pairs
 There are     19903 function pairs
 Smallest overlap matrix eigenvalue = 4.30E-04

 Scale SEOQF with 1.000000e-02/1.000000e-01/1.000000e-01

 Standard Electronic Orientation quadrupole field applied
 Nucleus-field energy     =     0.0000000041 hartrees
 Guess from superposition of atomic densities
 Warning:  Energy on first SCF cycle will be non-variational
 SAD guess density has 96.000000 electrons

 -----------------------------------------------------------------------
  General SCF calculation program by
  Eric Jon Sundstrom, Paul Horn, Yuezhi Mao, Dmitri Zuev, Alec White,
  David Stuck, Shaama M.S., Shane Yost, Joonho Lee, David Small,
  Daniel Levine, Susi Lehtola, Hugh Burton, Evgeny Epifanovsky,
  Bang C. Huynh
 -----------------------------------------------------------------------
 Exchange:     0.2000 Hartree-Fock + 0.0800 Slater + 0.7200 B88
 Correlation:  0.1900 VWN1RPA + 0.8100 LYP
 Using SG-1 standard quadrature grid
 using 6 threads for integral computing
 -------------------------------------------------------
 OpenMP Integral computing Module                
 Release: version 1.0, May 2013, Q-Chem Inc. Pittsburgh 
 -------------------------------------------------------
 A restricted SCF calculation will be
 performed using DIIS
 SCF converges when DIIS error is below 1.0e-08
 ---------------------------------------
  Cycle       Energy         DIIS error
 ---------------------------------------
    1    -544.1216121376      5.37e-02  
    2    -540.5059275559      5.00e-03  
    3    -540.5341432569      4.76e-03  
    4    -540.7000505761      5.58e-04  
    5    -540.7011820084      3.69e-04  
    6    -540.7022633122      9.72e-05  
    7    -540.7023274178      3.63e-05  
    8    -540.7023364385      7.35e-06  
    9    -540.7023367909      2.41e-06  
   10    -540.7023368304      7.67e-07  
   11    -540.7023368342      1.34e-07  
   12    -540.7023368343      6.08e-08  
   13    -540.7023368341      1.47e-08  
   14    -540.7023368341      3.41e-09  Convergence criterion met
 ---------------------------------------
 SCF time:   CPU 84.22s  wall 30.00s 
 SCF   energy in the final basis set =     -540.7023368341
 Total energy in the final basis set =     -540.7023368341

 --------------------------------------------------------------

                    Orbital Energies (a.u.)
 --------------------------------------------------------------

 Alpha MOs
 -- Occupied --
-10.1941 -10.1936 -10.1883 -10.1868 -10.1851 -10.1848 -10.1841 -10.1841
-10.1838 -10.1838 -10.1837 -10.1832 -10.1829 -10.1828  -0.8612  -0.8553
 -0.7980  -0.7581  -0.7454  -0.7442  -0.7101  -0.6325  -0.6067  -0.6039
 -0.5880  -0.5552  -0.5162  -0.5138  -0.4705  -0.4609  -0.4517  -0.4408
 -0.4313  -0.4197  -0.4188  -0.4156  -0.3829  -0.3686  -0.3619  -0.3521
 -0.3419  -0.3389  -0.3320  -0.2950  -0.2525  -0.2493  -0.2486  -0.2141
 -- Virtual --
 -0.0349   0.0034   0.0041   0.0123   0.0628   0.0992   0.1036   0.1184
  0.1468   0.1495   0.1618   0.1638   0.1693   0.1762   0.1813   0.1923
  0.1935   0.2045   0.2193   0.2572   0.2856   0.3060   0.3110   0.3131
  0.3203   0.3339   0.3416   0.3534   0.3904   0.4226   0.4666   0.4799
  0.5074   0.5269   0.5406   0.5458   0.5528   0.5585   0.5647   0.5709
  0.5788   0.5815   0.5951   0.5994   0.6015   0.6044   0.6070   0.6084
  0.6174   0.6202   0.6221   0.6316   0.6328   0.6471   0.6571   0.6606
  0.6811   0.6898   0.7099   0.7296   0.7653   0.7915   0.8285   0.8415
  0.8450   0.8474   0.8496   0.8509   0.8593   0.8647   0.8688   0.8839
  0.9059   0.9211   0.9240   0.9362   0.9440   0.9532   0.9626   0.9841
  1.0010   1.0107   1.0157   1.0431   1.0917   1.0987   1.1255   1.1450
  1.1522   1.1732   1.1877   1.1955   1.2052   1.2302   1.2550   1.2853
  1.3009   1.3515   1.4251   1.4381   1.4501   1.4535   1.4662   1.4691
  1.4939   1.4955   1.4973   1.4976   1.5172   1.5184   1.5383   1.5914
  1.6605   1.7517   1.7951   1.8145   1.8197   1.8237   1.8383   1.8604
  1.9138   1.9160   1.9295   1.9471   1.9713   1.9992   2.0002   2.0139
  2.0561   2.0695   2.0705   2.1204   2.1408   2.1451   2.1561   2.1582
  2.1690   2.1834   2.2065   2.2305   2.2412   2.2755   2.3009   2.3204
  2.3225   2.3243   2.3309   2.3997   2.4637   2.4991   2.5341   2.5910
  2.6025   2.6170   2.6444   2.6615   2.6826   2.7070   2.7452   2.7507
  2.7579   2.7638   2.7707   2.7784   2.8097   2.9078   2.9430   2.9866
  3.1213   3.1778   3.4484   3.4642   4.0985   4.1054   4.1137   4.1227
  4.1234   4.1436   4.1937   4.2848   4.3353   4.3373   4.3953   4.4657
  4.7106   4.7368
 --------------------------------------------------------------

          Ground-State Mulliken Net Atomic Charges

     Atom                 Charge (a.u.)
  ----------------------------------------
      1 C                    -0.161157
      2 C                     0.168690
      3 C                    -0.181765
      4 C                    -0.128500
      5 C                    -0.126858
      6 C                    -0.127855
      7 C                    -0.191210
      8 C                    -0.204737
      9 C                     0.135712
     10 C                    -0.172995
     11 C                    -0.128702
     12 C                    -0.126525
     13 C                    -0.127233
     14 C                    -0.174202
     15 H                     0.130959
     16 H                     0.127697
     17 H                     0.128305
     18 H                     0.127787
     19 H                     0.128479
     20 H                     0.126603
     21 H                     0.138671
     22 H                     0.128640
     23 H                     0.128105
     24 H                     0.127318
     25 H                     0.128178
     26 H                     0.126594
  ----------------------------------------
  Sum of atomic charges =     0.000000

 -----------------------------------------------------------------
                    Cartesian Multipole Moments
 -----------------------------------------------------------------
    Charge (ESU x 10^10)
                -0.0000
    Dipole Moment (Debye)
         X       0.0528      Y       0.0297      Z       0.0240
       Tot       0.0652
    Quadrupole Moments (Debye-Ang)
        XX     -71.4189     XY       0.7084     YY     -77.0488
        XZ      -0.2079     YZ      -0.2853     ZZ     -81.7785
    Octopole Moments (Debye-Ang^2)
       XXX       2.2545    XXY      -2.2364    XYY       3.2878
       YYY       0.1846    XXZ       7.2536    XYZ     -22.0774
       YYZ       0.1307    XZZ      -3.6337    YZZ      -0.0356
       ZZZ      -0.2838
    Hexadecapole Moments (Debye-Ang^3)
      XXXX   -4705.6765   XXXY      36.6412   XXYY    -917.6096
      XYYY       1.8690   YYYY    -414.3607   XXXZ     -10.1345
      XXYZ       1.8149   XYYZ       0.8829   YYYZ      -4.0390
      XXZZ    -930.3846   XYZZ      -1.5662   YYZZ    -105.3554
      XZZZ      -1.0465   YZZZ       3.9095   ZZZZ    -298.2871
 -----------------------------------------------------------------
 Calculating analytic gradient of the SCF energy
 Gradient of SCF Energy
            1           2           3           4           5           6
    1  -0.0078147   0.0085134  -0.0015643   0.0009688   0.0005183   0.0010784
    2  -0.0015560   0.0009810  -0.0007010   0.0005989  -0.0002638  -0.0001071
    3   0.0032684  -0.0005300  -0.0007913  -0.0006335  -0.0000037   0.0000076
            7           8           9          10          11          12
    1  -0.0018101   0.0040938  -0.0027483  -0.0020427   0.0018967  -0.0010427
    2   0.0001199   0.0009113   0.0016600   0.0007559  -0.0012589   0.0010885
    3   0.0008766   0.0025768  -0.0013205  -0.0019881  -0.0013675   0.0010632
           13          14          15          16          17          18
    1  -0.0013787   0.0022743   0.0045452   0.0070545  -0.0038539  -0.0101452
    2  -0.0001369  -0.0015634   0.0099995  -0.0061338  -0.0078421  -0.0013797
    3   0.0002577   0.0012680  -0.0023303   0.0052595   0.0053008   0.0001182
           19          20          21          22          23          24
    1  -0.0059348   0.0042323  -0.0045102  -0.0076144   0.0042975   0.0101607
    2   0.0065969   0.0077003  -0.0109717   0.0053408   0.0070400   0.0014955
    3  -0.0050710  -0.0049176  -0.0002368   0.0060220   0.0060253  -0.0005529
           25          26
    1   0.0054612  -0.0046349
    2  -0.0056666  -0.0067074
    3  -0.0066441  -0.0056568
 Max gradient component =       1.097E-02
 RMS gradient           =       4.472E-03
 Gradient time:  CPU 25.18 s  wall 8.81 s
 Geometry Optimization Parameters
   NAtoms,    NIC,     NZ,  NCons,   NDum,   NFix, NCnnct, MaxDiis
       26     181       0       0       0       0       0       0


** GEOMETRY OPTIMIZATION IN DELOCALIZED INTERNAL COORDINATES **
   Searching for a Minimum

   Optimization Cycle:   1

                       Coordinates (Angstroms)
     ATOM                X               Y               Z
      1  C         0.4795126381   -0.4520058260    0.0627028822
      2  C         1.9303497975   -0.2096546978    0.0177177270
      3  C         2.5030543285    0.8569257221   -0.6783692745
      4  C         3.8742041932    1.0501487071   -0.6792659129
      5  C         4.7067095752    0.1773204540    0.0069446039
      6  C         4.1546030103   -0.8943550272    0.6909267791
      7  C         2.7824571814   -1.0857195094    0.6923191839
      8  C        -0.4820873229    0.4593136586   -0.1130054511
      9  C        -1.9328993068    0.2152846752   -0.0768566347
     10  C        -2.5642641801   -0.7416466184   -0.8742201328
     11  C        -3.9318664713   -0.9430440319   -0.7936959772
     12  C        -4.7027963206   -0.1868103008    0.0778266321
     13  C        -4.0929412576    0.7769227290    0.8655121540
     14  C        -2.7242845043    0.9762659141    0.7852841327
     15  H         0.2031147211   -1.4656713131    0.2893899855
     16  H         1.8809261229    1.5288942795   -1.2356935124
     17  H         4.2932007696    1.8751912524   -1.2223228956
     18  H         5.7687712701    0.3270040277    0.0017894126
     19  H         4.7884385375   -1.5788222383    1.2208112394
     20  H         2.3645262181   -1.9180914311    1.2265488256
     21  H        -0.2059620881    1.4861908142   -0.2697840092
     22  H        -1.9917865757   -1.3196858278   -1.5723147175
     23  H        -4.3966886298   -1.6824344962   -1.4169180972
     24  H        -5.7624881160   -0.3420832451    0.1357202399
     25  H        -4.6793362024    1.3714785724    1.5390582084
     26  H        -2.2612241910    1.7243545124    1.4007910502
   Point Group: c1    Number of degrees of freedom:    72


   Energy is   -540.702336834


 Attempting to generate delocalized internal coordinates
 Initial Hessian constructed with Jon Baker's OPTIMIZE code

 72 Hessian modes will be used to form the next step
  Hessian Eigenvalues:
     0.012931    0.012932    0.019812    0.019812    0.022249    0.022250
     0.023086    0.023086    0.023567    0.023567    0.023697    0.023697
     0.024028    0.024028    0.024132    0.024132    0.024208    0.024208
     0.024271    0.024271    0.024295    0.024295    0.030816    0.159961
     0.159961    0.159973    0.159973    0.159992    0.159993    0.159996
     0.159996    0.159997    0.159997    0.160000    0.160000    0.219992
     0.219992    0.220000    0.220000    0.220014    0.220014    0.234681
     0.234681    0.249994    0.249994    0.355451    0.355462    0.366239
     0.366239    0.367618    0.367618    0.368631    0.368631    0.368714
     0.368715    0.369071    0.369072    0.369778    0.369778    0.427334
     0.427337    0.429844    0.429845    0.466899    0.466900    0.471648
     0.471650    0.479466    0.479467    0.481936    0.481941    0.580120

 Minimum search - taking simple RFO step
 Searching for Lamda that Minimizes Along All modes
 Value Taken    Lamda =  -0.00792300
 Step Taken.  Stepsize is  0.293191

                             Maximum     Tolerance    Cnvgd?
         Gradient           0.032533      0.000300      NO
         Displacement       0.211428      0.001200      NO
         Energy change     *********      0.000001      NO


 New Cartesian Coordinates Obtained by Inverse Iteration

 Displacement from previous Coordinates is:  1.191429
 ----------------------------------------------------------------
             Standard Nuclear Orientation (Angstroms)
    I     Atom           X                Y                Z
 ----------------------------------------------------------------
    1      C       0.4724136721    -0.4424087840     0.0422015687
    2      C       1.9272021130    -0.2139879850     0.0057712474
    3      C       2.5028573248     0.9105527711    -0.6133171743
    4      C       3.8841456690     1.0989616523    -0.6100142817
    5      C       4.7237914387     0.1639985834     0.0038812892
    6      C       4.1681985480    -0.9653327455     0.6105235157
    7      C       2.7858380855    -1.1525313013     0.6067591362
    8      C      -0.4786941769     0.4970654846    -0.0962793101
    9      C      -1.9350203227     0.2434619083    -0.0530073710
   10      C      -2.5283660510    -0.8015311801    -0.7794504545
   11      C      -3.9054041877    -1.0238467743    -0.7152837548
   12      C      -4.7164048648    -0.2032318268     0.0731878229
   13      C      -4.1400383696     0.8462562881     0.7945506346
   14      C      -2.7645718830     1.0688445148     0.7281586213
   15      H       0.1665801798    -1.4728064911     0.2266278313
   16      H       1.8649264365     1.6331697376    -1.1156495596
   17      H       4.3078051092     1.9735949650    -1.0975619939
   18      H       5.8007774942     0.3107528764     0.0011550556
   19      H       4.8108939990    -1.7020871464     1.0861096398
   20      H       2.3599395534    -2.0330523074     1.0830659738
   21      H      -0.1825806056     1.5389583303    -0.2290716864
   22      H      -1.9059662577    -1.4338648783    -1.4078282826
   23      H      -4.3456515850    -1.8365685668    -1.2878621528
   24      H      -5.7883497463    -0.3771377210     0.1208869411
   25      H      -4.7614706070     1.4921678780     1.4100808301
   26      H      -2.3216077690     1.8858734737     1.2932623553
 ----------------------------------------------------------------
 Molecular Point Group                 C1    NOp =  1
 Largest Abelian Subgroup              C1    NOp =  1
 Nuclear Repulsion Energy =         730.54613677 hartrees
 There are       48 alpha and       48 beta electrons
 Applying Cartesian multipole field
    Component          Value
    ---------          -----
     (2,0,0)        1.00000E-12
     (0,2,0)        2.00000E-11
     (0,0,2)       -3.00000E-11
 Nucleus-field energy     =     0.0000000057 hartrees
 Requested basis set is 6-31G(d)
 There are 80 shells and 234 basis functions
 A cutoff of  1.0D-11 yielded   2196 shell pairs
 There are     19902 function pairs
 Smallest overlap matrix eigenvalue = 4.66E-04
 Guess MOs from SCF MO coefficient file

 -----------------------------------------------------------------------
  General SCF calculation program by
  Eric Jon Sundstrom, Paul Horn, Yuezhi Mao, Dmitri Zuev, Alec White,
  David Stuck, Shaama M.S., Shane Yost, Joonho Lee, David Small,
  Daniel Levine, Susi Lehtola, Hugh Burton, Evgeny Epifanovsky,
  Bang C. Huynh
 -----------------------------------------------------------------------
 Exchange:     0.2000 Hartree-Fock + 0.0800 Slater + 0.7200 B88
 Correlation:  0.1900 VWN1RPA + 0.8100 LYP
 Using SG-1 standard quadrature grid
 using 6 threads for integral computing
 -------------------------------------------------------
 OpenMP Integral computing Module                
 Release: version 1.0, May 2013, Q-Chem Inc. Pittsburgh 
 -------------------------------------------------------
 A restricted SCF calculation will be
 performed using DIIS
 SCF converges when DIIS error is below 1.0e-08
 ---------------------------------------
  Cycle       Energy         DIIS error
 ---------------------------------------
    1    -540.6808209688      1.25e-03  
    2    -540.7061626935      2.03e-04  
    3    -540.7064966606      1.79e-04  
    4    -540.7067091139      5.97e-05  
    5    -540.7067334437      2.33e-05  
    6    -540.7067378702      5.68e-06  
    7    -540.7067380614      2.77e-06  
    8    -540.7067381172      4.21e-07  
    9    -540.7067381183      2.34e-07  
   10    -540.7067381191      3.77e-08  
   11    -540.7067381187      2.35e-08  
   12    -540.7067381188      5.54e-09  Convergence criterion met
 ---------------------------------------
 SCF time:   CPU 72.52s  wall 25.00s 
 SCF   energy in the final basis set =     -540.7067381188
 Total energy in the final basis set =     -540.7067381188

 --------------------------------------------------------------

                    Orbital Energies (a.u.)
 --------------------------------------------------------------

 Alpha MOs
 -- Occupied --
-10.1979 -10.1973 -10.1918 -10.1909 -10.1899 -10.1896 -10.1892 -10.1890
-10.1889 -10.1886 -10.1884 -10.1883 -10.1878 -10.1875  -0.8571  -0.8507
 -0.7955  -0.7551  -0.7425  -0.7413  -0.7071  -0.6301  -0.6043  -0.6022
 -0.5853  -0.5512  -0.5128  -0.5100  -0.4687  -0.4596  -0.4501  -0.4381
 -0.4285  -0.4178  -0.4169  -0.4129  -0.3806  -0.3668  -0.3610  -0.3516
 -0.3414  -0.3376  -0.3331  -0.2965  -0.2536  -0.2488  -0.2479  -0.2112
 -- Virtual --
 -0.0394   0.0009   0.0013   0.0117   0.0620   0.0952   0.0994   0.1114
  0.1432   0.1447   0.1578   0.1601   0.1654   0.1716   0.1746   0.1864
  0.1870   0.2006   0.2169   0.2525   0.2812   0.2987   0.3042   0.3072
  0.3186   0.3290   0.3370   0.3490   0.3879   0.4225   0.4628   0.4815
  0.5079   0.5266   0.5375   0.5422   0.5478   0.5517   0.5599   0.5667
  0.5761   0.5780   0.5938   0.5953   0.5975   0.6018   0.6049   0.6059
  0.6119   0.6166   0.6184   0.6278   0.6299   0.6448   0.6529   0.6579
  0.6792   0.6876   0.7055   0.7272   0.7629   0.7891   0.8201   0.8329
  0.8352   0.8387   0.8402   0.8421   0.8555   0.8585   0.8678   0.8922
  0.9032   0.9121   0.9171   0.9338   0.9425   0.9485   0.9577   0.9805
  1.0015   1.0099   1.0171   1.0376   1.0830   1.0968   1.1235   1.1320
  1.1500   1.1665   1.1836   1.1899   1.2003   1.2282   1.2542   1.2807
  1.3014   1.3536   1.4250   1.4345   1.4412   1.4438   1.4575   1.4598
  1.4892   1.4907   1.4933   1.4945   1.5157   1.5165   1.5226   1.5858
  1.6456   1.7450   1.7847   1.8051   1.8122   1.8165   1.8242   1.8599
  1.8944   1.8974   1.9115   1.9282   1.9653   1.9776   1.9800   1.9975
  2.0364   2.0519   2.0534   2.1105   2.1323   2.1370   2.1428   2.1458
  2.1547   2.1733   2.1935   2.2195   2.2324   2.2690   2.2878   2.3111
  2.3118   2.3137   2.3189   2.3938   2.4476   2.4861   2.5210   2.5789
  2.5890   2.6077   2.6252   2.6413   2.6598   2.6871   2.7217   2.7377
  2.7391   2.7451   2.7530   2.7583   2.7997   2.8952   2.9349   2.9694
  3.1141   3.1620   3.4075   3.4250   4.0829   4.0903   4.1053   4.1166
  4.1175   4.1303   4.1857   4.2708   4.3293   4.3313   4.3879   4.4581
  4.6951   4.7230
 --------------------------------------------------------------

          Ground-State Mulliken Net Atomic Charges

     Atom                 Charge (a.u.)
  ----------------------------------------
      1 C                    -0.167887
      2 C                     0.165060
      3 C                    -0.180672
      4 C                    -0.131292
      5 C                    -0.129191
      6 C                    -0.130302
      7 C                    -0.190904
      8 C                    -0.197677
      9 C                     0.138745
     10 C                    -0.174570
     11 C                    -0.131830
     12 C                    -0.128505
     13 C                    -0.130506
     14 C                    -0.177845
     15 H                     0.131884
     16 H                     0.129935
     17 H                     0.130241
     18 H                     0.129742
     19 H                     0.130494
     20 H                     0.128635
     21 H                     0.137066
     22 H                     0.131197
     23 H                     0.129998
     24 H                     0.129380
     25 H                     0.130198
     26 H                     0.128605
  ----------------------------------------
  Sum of atomic charges =     0.000000

 -----------------------------------------------------------------
                    Cartesian Multipole Moments
 -----------------------------------------------------------------
    Charge (ESU x 10^10)
                 0.0000
    Dipole Moment (Debye)
         X       0.0534      Y       0.0184      Z       0.0197
       Tot       0.0598
    Quadrupole Moments (Debye-Ang)
        XX     -71.4205     XY       0.6240     YY     -76.0707
        XZ      -0.3340     YZ      -0.0695     ZZ     -83.2604
    Octopole Moments (Debye-Ang^2)
       XXX       2.2117    XXY      -2.3615    XYY       3.0053
       YYY      -0.1807    XXZ       7.5876    XYZ     -21.7843
       YYZ       0.0929    XZZ      -3.2637    YZZ       0.0039
       ZZZ      -0.3223
    Hexadecapole Moments (Debye-Ang^3)
      XXXX   -4727.5138   XXXY      38.7706   XXYY    -917.6806
      XYYY       9.4249   YYYY    -457.2713   XXXZ      -6.0810
      XXYZ       2.5792   XYYZ       3.3252   YYYZ      -6.1076
      XXZZ    -947.0221   XYZZ       0.6365   YYZZ    -108.9811
      XZZZ       6.9217   YZZZ       0.2605   ZZZZ    -263.7474
 -----------------------------------------------------------------
 Calculating analytic gradient of the SCF energy
 Gradient of SCF Energy
            1           2           3           4           5           6
    1  -0.0029071   0.0016703  -0.0017923   0.0008903   0.0007960   0.0006911
    2   0.0011370   0.0009527  -0.0004367   0.0006254   0.0002854  -0.0007257
    3   0.0020793  -0.0000802  -0.0004410  -0.0004472   0.0000036   0.0004320
            7           8           9          10          11          12
    1  -0.0010723   0.0030567  -0.0014472   0.0008565  -0.0003191  -0.0011647
    2  -0.0003976  -0.0012390  -0.0010831   0.0018616  -0.0004796   0.0003958
    3   0.0008585   0.0008974  -0.0004857  -0.0011968  -0.0008279   0.0003366
           13          14          15          16          17          18
    1  -0.0011384   0.0014599   0.0004546  -0.0002454   0.0000063   0.0002108
    2   0.0002951  -0.0007739  -0.0005221   0.0003344   0.0001584   0.0000373
    3   0.0003924   0.0019493  -0.0008560  -0.0000317  -0.0000918   0.0000212
           19          20          21          22          23          24
    1   0.0000913   0.0001147   0.0001409  -0.0000657   0.0000055  -0.0001911
    2  -0.0001750  -0.0001517   0.0004018  -0.0005250  -0.0002341  -0.0001330
    3   0.0001055   0.0001437  -0.0028483  -0.0001765  -0.0000141   0.0000593
           25          26
    1  -0.0000578  -0.0000439
    2   0.0002043   0.0001875
    3   0.0001004   0.0001181
 Max gradient component =       3.057E-03
 RMS gradient           =       9.380E-04
 Gradient time:  CPU 25.13 s  wall 8.64 s
 Geometry Optimization Parameters
   NAtoms,    NIC,     NZ,  NCons,   NDum,   NFix, NCnnct, MaxDiis
       26     181       0       0       0       0       0       0

 Cartesian Hessian Update
 Hessian updated using BFGS update


** GEOMETRY OPTIMIZATION IN DELOCALIZED INTERNAL COORDINATES **
   Searching for a Minimum

   Optimization Cycle:   2

                       Coordinates (Angstroms)
     ATOM                X               Y               Z
      1  C         0.4724136721   -0.4424087840    0.0422015687
      2  C         1.9272021130   -0.2139879850    0.0057712474
      3  C         2.5028573248    0.9105527711   -0.6133171743
      4  C         3.8841456690    1.0989616523   -0.6100142817
      5  C         4.7237914387    0.1639985834    0.0038812892
      6  C         4.1681985480   -0.9653327455    0.6105235157
      7  C         2.7858380855   -1.1525313013    0.6067591362
      8  C        -0.4786941769    0.4970654846   -0.0962793101
      9  C        -1.9350203227    0.2434619083   -0.0530073710
     10  C        -2.5283660510   -0.8015311801   -0.7794504545
     11  C        -3.9054041877   -1.0238467743   -0.7152837548
     12  C        -4.7164048648   -0.2032318268    0.0731878229
     13  C        -4.1400383696    0.8462562881    0.7945506346
     14  C        -2.7645718830    1.0688445148    0.7281586213
     15  H         0.1665801798   -1.4728064911    0.2266278313
     16  H         1.8649264365    1.6331697376   -1.1156495596
     17  H         4.3078051092    1.9735949650   -1.0975619939
     18  H         5.8007774942    0.3107528764    0.0011550556
     19  H         4.8108939990   -1.7020871464    1.0861096398
     20  H         2.3599395534   -2.0330523074    1.0830659738
     21  H        -0.1825806056    1.5389583303   -0.2290716864
     22  H        -1.9059662577   -1.4338648783   -1.4078282826
     23  H        -4.3456515850   -1.8365685668   -1.2878621528
     24  H        -5.7883497463   -0.3771377210    0.1208869411
     25  H        -4.7614706070    1.4921678780    1.4100808301
     26  H        -2.3216077690    1.8858734737    1.2932623553
   Point Group: c1    Number of degrees of freedom:    72


   Energy is   -540.706738119

 Hessian updated using BFGS update

 72 Hessian modes will be used to form the next step
  Hessian Eigenvalues:
     0.010794    0.012945    0.019811    0.019818    0.022249    0.022255
     0.023084    0.023134    0.023567    0.023574    0.023696    0.023704
     0.024028    0.024038    0.024132    0.024132    0.024208    0.024209
     0.024268    0.024271    0.024295    0.024296    0.031054    0.159086
     0.159966    0.159970    0.159986    0.159992    0.159994    0.159996
     0.159996    0.159997    0.159998    0.160000    0.160138    0.216502
     0.219992    0.219993    0.220000    0.220000    0.220948    0.234484
     0.234847    0.247878    0.250421    0.353438    0.355515    0.366150
     0.366666    0.367617    0.367893    0.368631    0.368668    0.368715
     0.368933    0.369071    0.369509    0.369778    0.388473    0.426993
     0.427335    0.429839    0.429891    0.466782    0.466917    0.471643
     0.476681    0.479237    0.479482    0.481930    0.535098    0.577815

 Minimum search - taking simple RFO step
 Searching for Lamda that Minimizes Along All modes
 Value Taken    Lamda =  -0.00177910
 Calculated Step too Large.  Step scaled by  0.822867
 Step Taken.  Stepsize is  0.300000

                             Maximum     Tolerance    Cnvgd?
         Gradient           0.003023      0.000300      NO
         Displacement       0.208381      0.001200      NO
         Energy change     -0.004401      0.000001      NO


 New Cartesian Coordinates Obtained by Inverse Iteration

 Displacement from previous Coordinates is:  1.190418
 ----------------------------------------------------------------
             Standard Nuclear Orientation (Angstroms)
    I     Atom           X                Y                Z
 ----------------------------------------------------------------
    1      C       0.4675524414    -0.4218271324     0.0286331362
    2      C       1.9223992826    -0.2048010458    -0.0042577274
    3      C       2.5065105182     0.9584921721    -0.5411486218
    4      C       3.8893171391     1.1319450230    -0.5362524978
    5      C       4.7240838456     0.1434623442    -0.0048491690
    6      C       4.1612971730    -1.0236858805     0.5177101810
    7      C       2.7771601776    -1.1961333097     0.5124625795
    8      C      -0.4821663581     0.5279031050    -0.0598836490
    9      C      -1.9348681402     0.2639799414    -0.0292860059
   10      C      -2.4922085516    -0.8530933099    -0.6740836445
   11      C      -3.8664288925    -1.0951986578    -0.6231924008
   12      C      -4.7096553511    -0.2215550572     0.0677967590
   13      C      -4.1695484841     0.9002366840     0.7047581547
   14      C      -2.7972278207     1.1425083765     0.6524729879
   15      H       0.1512421277    -1.4577812893     0.1671533048
   16      H       1.8714939905     1.7236582512    -0.9830492380
   17      H       4.3191706080     2.0377831581    -0.9603252143
   18      H       5.8039039373     0.2787289955    -0.0070994494
   19      H       4.8009479232    -1.8026259775     0.9288153310
   20      H       2.3444709324    -2.1076576288     0.9229729529
   21      H      -0.1860325895     1.5761187482    -0.1385614975
   22      H      -1.8396550712    -1.5253323241    -1.2281603969
   23      H      -4.2797534792    -1.9637195097    -1.1330779446
   24      H      -5.7811170292    -0.4090422159     0.1037477255
   25      H      -4.8187938310     1.5875517616     1.2444144330
   26      H      -2.3808513013     2.0153555336     1.1531863530
 ----------------------------------------------------------------
 Molecular Point Group                 C1    NOp =  1
 Largest Abelian Subgroup              C1    NOp =  1
 Nuclear Repulsion Energy =         730.80688741 hartrees
 There are       48 alpha and       48 beta electrons
 Applying Cartesian multipole field
    Component          Value
    ---------          -----
     (2,0,0)        1.00000E-12
     (0,2,0)        2.00000E-11
     (0,0,2)       -3.00000E-11
 Nucleus-field energy     =     0.0000000072 hartrees
 Requested basis set is 6-31G(d)
 There are 80 shells and 234 basis functions
 A cutoff of  1.0D-11 yielded   2202 shell pairs
 There are     19905 function pairs
 Smallest overlap matrix eigenvalue = 4.65E-04
 Guess MOs from SCF MO coefficient file

 -----------------------------------------------------------------------
  General SCF calculation program by
  Eric Jon Sundstrom, Paul Horn, Yuezhi Mao, Dmitri Zuev, Alec White,
  David Stuck, Shaama M.S., Shane Yost, Joonho Lee, David Small,
  Daniel Levine, Susi Lehtola, Hugh Burton, Evgeny Epifanovsky,
  Bang C. Huynh
 -----------------------------------------------------------------------
 Exchange:     0.2000 Hartree-Fock + 0.0800 Slater + 0.7200 B88
 Correlation:  0.1900 VWN1RPA + 0.8100 LYP
 Using SG-1 standard quadrature grid
 using 6 threads for integral computing
 -------------------------------------------------------
 OpenMP Integral computing Module                
 Release: version 1.0, May 2013, Q-Chem Inc. Pittsburgh 
 -------------------------------------------------------
 A restricted SCF calculation will be
 performed using DIIS
 SCF converges when DIIS error is below 1.0e-08
 ---------------------------------------
  Cycle       Energy         DIIS error
 ---------------------------------------
    1    -540.6822547711      1.23e-03  
    2    -540.7075941605      1.47e-04  
    3    -540.7080008059      5.82e-05  
    4    -540.7080133629      4.25e-05  
    5    -540.7080266452      1.12e-05  
    6    -540.7080275556      4.26e-06  
    7    -540.7080276870      8.11e-07  
    8    -540.7080276913      3.05e-07  
    9    -540.7080276918      1.29e-07  
   10    -540.7080276925      2.02e-08  
   11    -540.7080276927      9.43e-09  Convergence criterion met
 ---------------------------------------
 SCF time:   CPU 67.40s  wall 24.00s 
 SCF   energy in the final basis set =     -540.7080276927
 Total energy in the final basis set =     -540.7080276927

 --------------------------------------------------------------

                    Orbital Energies (a.u.)
 --------------------------------------------------------------

 Alpha MOs
 -- Occupied --
-10.1982 -10.1975 -10.1920 -10.1912 -10.1902 -10.1899 -10.1896 -10.1894
-10.1893 -10.1889 -10.1888 -10.1887 -10.1883 -10.1878  -0.8573  -0.8509
 -0.7957  -0.7553  -0.7426  -0.7416  -0.7068  -0.6305  -0.6043  -0.6028
 -0.5851  -0.5506  -0.5129  -0.5101  -0.4685  -0.4599  -0.4507  -0.4374
 -0.4277  -0.4179  -0.4167  -0.4122  -0.3794  -0.3677  -0.3624  -0.3519
 -0.3414  -0.3369  -0.3341  -0.2991  -0.2557  -0.2490  -0.2483  -0.2088
 -- Virtual --
 -0.0424   0.0009   0.0012   0.0135   0.0646   0.0949   0.0988   0.1087
  0.1426   0.1436   0.1567   0.1610   0.1662   0.1722   0.1733   0.1857
  0.1864   0.2045   0.2177   0.2535   0.2820   0.2953   0.3031   0.3066
  0.3233   0.3295   0.3387   0.3495   0.3886   0.4260   0.4636   0.4855
  0.5084   0.5265   0.5380   0.5430   0.5494   0.5527   0.5600   0.5671
  0.5762   0.5780   0.5941   0.5943   0.5974   0.6015   0.6045   0.6076
  0.6097   0.6167   0.6183   0.6274   0.6300   0.6439   0.6505   0.6624
  0.6787   0.6877   0.7093   0.7267   0.7631   0.7885   0.8204   0.8293
  0.8341   0.8373   0.8393   0.8408   0.8545   0.8576   0.8732   0.9048
  0.9114   0.9118   0.9182   0.9367   0.9462   0.9509   0.9601   0.9854
  1.0059   1.0120   1.0255   1.0418   1.0757   1.0980   1.1281   1.1302
  1.1546   1.1671   1.1821   1.1933   1.2013   1.2314   1.2575   1.2775
  1.3021   1.3622   1.4236   1.4320   1.4404   1.4446   1.4566   1.4598
  1.4887   1.4915   1.4942   1.4947   1.5151   1.5158   1.5189   1.5851
  1.6330   1.7426   1.7823   1.8062   1.8119   1.8184   1.8237   1.8619
  1.8930   1.8967   1.9098   1.9270   1.9667   1.9761   1.9786   1.9934
  2.0330   2.0510   2.0528   2.1116   2.1302   2.1381   2.1445   2.1469
  2.1559   2.1744   2.1923   2.2197   2.2333   2.2719   2.2870   2.3106
  2.3118   2.3147   2.3174   2.4030   2.4445   2.4843   2.5197   2.5798
  2.5894   2.6060   2.6192   2.6433   2.6571   2.6864   2.7197   2.7356
  2.7391   2.7460   2.7529   2.7584   2.8026   2.8977   2.9391   2.9675
  3.1264   3.1645   3.4065   3.4253   4.0816   4.0892   4.1036   4.1161
  4.1173   4.1237   4.1833   4.2619   4.3290   4.3304   4.3866   4.4579
  4.6931   4.7247
 --------------------------------------------------------------

          Ground-State Mulliken Net Atomic Charges

     Atom                 Charge (a.u.)
  ----------------------------------------
      1 C                    -0.174826
      2 C                     0.167593
      3 C                    -0.180755
      4 C                    -0.131334
      5 C                    -0.129317
      6 C                    -0.130373
      7 C                    -0.191714
      8 C                    -0.191410
      9 C                     0.148276
     10 C                    -0.176696
     11 C                    -0.132290
     12 C                    -0.128812
     13 C                    -0.131076
     14 C                    -0.181920
     15 H                     0.131207
     16 H                     0.129882
     17 H                     0.130370
     18 H                     0.129876
     19 H                     0.130550
     20 H                     0.128519
     21 H                     0.134755
     22 H                     0.131222
     23 H                     0.130201
     24 H                     0.129460
     25 H                     0.130290
     26 H                     0.128322
  ----------------------------------------
  Sum of atomic charges =     0.000000

 -----------------------------------------------------------------
                    Cartesian Multipole Moments
 -----------------------------------------------------------------
    Charge (ESU x 10^10)
                 0.0000
    Dipole Moment (Debye)
         X       0.0496      Y       0.0125      Z       0.0103
       Tot       0.0522
    Quadrupole Moments (Debye-Ang)
        XX     -71.3143     XY       0.4798     YY     -75.0515
        XZ      -0.4084     YZ       0.1455     ZZ     -84.3933
    Octopole Moments (Debye-Ang^2)
       XXX       2.0827    XXY      -2.2212    XYY       2.4545
       YYY      -0.4422    XXZ       6.8962    XYZ     -20.1138
       YYZ       0.0340    XZZ      -2.6898    YZZ      -0.0193
       ZZZ      -0.5005
    Hexadecapole Moments (Debye-Ang^3)
      XXXX   -4718.1818   XXXY      37.1044   XXYY    -909.5790
      XYYY      14.5611   YYYY    -489.7598   XXXZ      -1.0195
      XXYZ       2.9939   XYYZ       5.4567   YYYZ      -7.2125
      XXZZ    -953.8765   XYZZ       2.9045   YYZZ    -112.3117
      XZZZ      15.3903   YZZZ      -3.3716   ZZZZ    -224.8746
 -----------------------------------------------------------------
 Calculating analytic gradient of the SCF energy
 Gradient of SCF Energy
            1           2           3           4           5           6
    1  -0.0021311   0.0010578  -0.0007250   0.0005137  -0.0000658   0.0001235
    2   0.0007529   0.0006429  -0.0004898  -0.0000664   0.0002680  -0.0000773
    3   0.0015222   0.0003433  -0.0002394   0.0001056  -0.0001383   0.0001052
            7           8           9          10          11          12
    1  -0.0004640   0.0029976  -0.0027470   0.0014936  -0.0011945   0.0001816
    2   0.0001608  -0.0005181  -0.0015030   0.0019097   0.0002244  -0.0002753
    3   0.0002162   0.0004316   0.0000313  -0.0009751  -0.0000074  -0.0001417
           13          14          15          16          17          18
    1  -0.0001651   0.0006132  -0.0005153  -0.0008228   0.0004146   0.0011110
    2   0.0000770  -0.0006201  -0.0013976   0.0007654   0.0009272   0.0001381
    3  -0.0000396   0.0016227  -0.0006852  -0.0004459  -0.0004673  -0.0000176
           19          20          21          22          23          24
    1   0.0006225  -0.0003464   0.0006704   0.0010417  -0.0003838  -0.0010950
    2  -0.0007959  -0.0009104   0.0013119  -0.0008632  -0.0009090  -0.0002768
    3   0.0004460   0.0004235  -0.0025212  -0.0002286  -0.0004960   0.0000421
           25          26
    1  -0.0006182   0.0004329
    2   0.0007682   0.0007565
    3   0.0005947   0.0005191
 Max gradient component =       2.998E-03
 RMS gradient           =       9.196E-04
 Gradient time:  CPU 25.13 s  wall 8.73 s
 Geometry Optimization Parameters
   NAtoms,    NIC,     NZ,  NCons,   NDum,   NFix, NCnnct, MaxDiis
       26     181       0       0       0       0       0       0

 Cartesian Hessian Update
 Hessian updated using BFGS update


** GEOMETRY OPTIMIZATION IN DELOCALIZED INTERNAL COORDINATES **
   Searching for a Minimum

   Optimization Cycle:   3

                       Coordinates (Angstroms)
     ATOM                X               Y               Z
      1  C         0.4675524414   -0.4218271324    0.0286331362
      2  C         1.9223992826   -0.2048010458   -0.0042577274
      3  C         2.5065105182    0.9584921721   -0.5411486218
      4  C         3.8893171391    1.1319450230   -0.5362524978
      5  C         4.7240838456    0.1434623442   -0.0048491690
      6  C         4.1612971730   -1.0236858805    0.5177101810
      7  C         2.7771601776   -1.1961333097    0.5124625795
      8  C        -0.4821663581    0.5279031050   -0.0598836490
      9  C        -1.9348681402    0.2639799414   -0.0292860059
     10  C        -2.4922085516   -0.8530933099   -0.6740836445
     11  C        -3.8664288925   -1.0951986578   -0.6231924008
     12  C        -4.7096553511   -0.2215550572    0.0677967590
     13  C        -4.1695484841    0.9002366840    0.7047581547
     14  C        -2.7972278207    1.1425083765    0.6524729879
     15  H         0.1512421277   -1.4577812893    0.1671533048
     16  H         1.8714939905    1.7236582512   -0.9830492380
     17  H         4.3191706080    2.0377831581   -0.9603252143
     18  H         5.8039039373    0.2787289955   -0.0070994494
     19  H         4.8009479232   -1.8026259775    0.9288153310
     20  H         2.3444709324   -2.1076576288    0.9229729529
     21  H        -0.1860325895    1.5761187482   -0.1385614975
     22  H        -1.8396550712   -1.5253323241   -1.2281603969
     23  H        -4.2797534792   -1.9637195097   -1.1330779446
     24  H        -5.7811170292   -0.4090422159    0.1037477255
     25  H        -4.8187938310    1.5875517616    1.2444144330
     26  H        -2.3808513013    2.0153555336    1.1531863530
   Point Group: c1    Number of degrees of freedom:    72


   Energy is   -540.708027693

 Hessian updated using BFGS update

 72 Hessian modes will be used to form the next step
  Hessian Eigenvalues:
     0.003349    0.012978    0.019814    0.019869    0.022250    0.022368
     0.023086    0.023170    0.023567    0.023585    0.023698    0.023779
     0.024028    0.024036    0.024132    0.024132    0.024209    0.024228
     0.024271    0.024293    0.024296    0.024331    0.030912    0.159932
     0.159966    0.159979    0.159988    0.159993    0.159994    0.159996
     0.159997    0.159998    0.160000    0.160055    0.162482    0.219193
     0.219992    0.219998    0.220000    0.220043    0.227805    0.234655
     0.237390    0.250024    0.266499    0.351574    0.355499    0.366323
     0.366641    0.367625    0.367897    0.368631    0.368673    0.368716
     0.368941    0.369071    0.369594    0.369785    0.410382    0.426780
     0.428650    0.429823    0.430363    0.466638    0.467529    0.471897
     0.476670    0.479479    0.481535    0.483635    0.528237    0.578282

 Minimum search - taking simple RFO step
 Searching for Lamda that Minimizes Along All modes
 Value Taken    Lamda =  -0.00249507
 Calculated Step too Large.  Step scaled by  0.469743
 Step Taken.  Stepsize is  0.300000

                             Maximum     Tolerance    Cnvgd?
         Gradient           0.003879      0.000300      NO
         Displacement       0.208725      0.001200      NO
         Energy change     -0.001290      0.000001      NO


 New Cartesian Coordinates Obtained by Inverse Iteration

 Displacement from previous Coordinates is:  1.168099
 ----------------------------------------------------------------
             Standard Nuclear Orientation (Angstroms)
    I     Atom           X                Y                Z
 ----------------------------------------------------------------
    1      C       0.4684887239    -0.4124442114     0.0128296226
    2      C       1.9212971736    -0.1985910702    -0.0145585682
    3      C       2.5094905684     1.0004830049    -0.4621803781
    4      C       3.8924179037     1.1651133455    -0.4539121786
    5      C       4.7250321807     0.1332340290    -0.0089886287
    6      C       4.1591797487    -1.0681438082     0.4233347418
    7      C       2.7746396997    -1.2316908438     0.4155209844
    8      C      -0.4859451524     0.5382970878    -0.0290476859
    9      C      -1.9340094064     0.2693469793    -0.0115579768
   10      C      -2.4717694000    -0.9052553295    -0.5679207206
   11      C      -3.8438126273    -1.1533642911    -0.5246267132
   12      C      -4.7077992000    -0.2278133517     0.0652924477
   13      C      -4.1893900916     0.9514306225     0.6085395560
   14      C      -2.8184748888     1.1993739473     0.5651668495
   15      H       0.1522070245    -1.4527382385     0.1080392260
   16      H       1.8768320614     1.8016711104    -0.8379534537
   17      H       4.3248006495     2.0990909158    -0.8081042394
   18      H       5.8054028768     0.2623086845    -0.0088935425
   19      H       4.7970745447    -1.8806431738     0.7660212557
   20      H       2.3388693340    -2.1701784019     0.7556417225
   21      H      -0.1943782811     1.5895859710    -0.0498985890
   22      H      -1.8044376583    -1.6164151654    -1.0504305767
   23      H      -4.2405202714    -2.0662120223    -0.9651812468
   24      H      -5.7786806729    -0.4187118364     0.0932573401
   25      H      -4.8555155049     1.6795768278     1.0675545432
   26      H      -2.4197561375     2.1179599742     0.9929526505
 ----------------------------------------------------------------
 Molecular Point Group                 C1    NOp =  1
 Largest Abelian Subgroup              C1    NOp =  1
 Nuclear Repulsion Energy =         731.13522596 hartrees
 There are       48 alpha and       48 beta electrons
 Applying Cartesian multipole field
    Component          Value
    ---------          -----
     (2,0,0)        1.00000E-12
     (0,2,0)        2.00000E-11
     (0,0,2)       -3.00000E-11
 Nucleus-field energy     =     0.0000000085 hartrees
 Requested basis set is 6-31G(d)
 There are 80 shells and 234 basis functions
 A cutoff of  1.0D-11 yielded   2206 shell pairs
 There are     19912 function pairs
 Smallest overlap matrix eigenvalue = 4.62E-04
 Guess MOs from SCF MO coefficient file

 -----------------------------------------------------------------------
  General SCF calculation program by
  Eric Jon Sundstrom, Paul Horn, Yuezhi Mao, Dmitri Zuev, Alec White,
  David Stuck, Shaama M.S., Shane Yost, Joonho Lee, David Small,
  Daniel Levine, Susi Lehtola, Hugh Burton, Evgeny Epifanovsky,
  Bang C. Huynh
 -----------------------------------------------------------------------
 Exchange:     0.2000 Hartree-Fock + 0.0800 Slater + 0.7200 B88
 Correlation:  0.1900 VWN1RPA + 0.8100 LYP
 Using SG-1 standard quadrature grid
 using 6 threads for integral computing
 -------------------------------------------------------
 OpenMP Integral computing Module                
 Release: version 1.0, May 2013, Q-Chem Inc. Pittsburgh 
 -------------------------------------------------------
 A restricted SCF calculation will be
 performed using DIIS
 SCF converges when DIIS error is below 1.0e-08
 ---------------------------------------
  Cycle       Energy         DIIS error
 ---------------------------------------
    1    -540.6836804188      1.21e-03  
    2    -540.7085395754      1.45e-04  
    3    -540.7089448524      5.31e-05  
    4    -540.7089545844      4.03e-05  
    5    -540.7089666245      1.06e-05  
    6    -540.7089674486      3.80e-06  
    7    -540.7089675521      5.66e-07  
    8    -540.7089675534      2.96e-07  
    9    -540.7089675540      1.11e-07  
   10    -540.7089675547      1.74e-08  
   11    -540.7089675547      7.31e-09  Convergence criterion met
 ---------------------------------------
 SCF time:   CPU 66.86s  wall 23.00s 
 SCF   energy in the final basis set =     -540.7089675547
 Total energy in the final basis set =     -540.7089675547

 --------------------------------------------------------------

                    Orbital Energies (a.u.)
 --------------------------------------------------------------

 Alpha MOs
 -- Occupied --
-10.1983 -10.1977 -10.1920 -10.1912 -10.1902 -10.1898 -10.1896 -10.1894
-10.1893 -10.1888 -10.1888 -10.1887 -10.1885 -10.1878  -0.8577  -0.8513
 -0.7961  -0.7557  -0.7428  -0.7421  -0.7067  -0.6314  -0.6048  -0.6034
 -0.5854  -0.5506  -0.5133  -0.5106  -0.4687  -0.4605  -0.4516  -0.4370
 -0.4271  -0.4183  -0.4164  -0.4117  -0.3783  -0.3691  -0.3636  -0.3522
 -0.3415  -0.3372  -0.3342  -0.3017  -0.2576  -0.2492  -0.2486  -0.2065
 -- Virtual --
 -0.0451   0.0011   0.0012   0.0151   0.0678   0.0949   0.0984   0.1063
  0.1414   0.1432   0.1565   0.1620   0.1668   0.1719   0.1744   0.1851
  0.1869   0.2105   0.2189   0.2551   0.2830   0.2913   0.3027   0.3065
  0.3278   0.3307   0.3430   0.3508   0.3898   0.4303   0.4649   0.4897
  0.5089   0.5263   0.5393   0.5443   0.5510   0.5543   0.5606   0.5676
  0.5745   0.5800   0.5930   0.5943   0.5979   0.6012   0.6042   0.6073
  0.6090   0.6171   0.6184   0.6272   0.6299   0.6429   0.6490   0.6656
  0.6770   0.6861   0.7183   0.7267   0.7638   0.7880   0.8213   0.8265
  0.8334   0.8369   0.8393   0.8406   0.8540   0.8576   0.8795   0.9061
  0.9125   0.9181   0.9239   0.9414   0.9469   0.9547   0.9606   0.9980
  1.0115   1.0159   1.0323   1.0508   1.0686   1.0992   1.1318   1.1393
  1.1616   1.1695   1.1824   1.1991   1.2051   1.2362   1.2617   1.2743
  1.3029   1.3714   1.4226   1.4301   1.4402   1.4465   1.4565   1.4605
  1.4881   1.4930   1.4946   1.4959   1.5122   1.5157   1.5173   1.5861
  1.6232   1.7407   1.7814   1.8085   1.8125   1.8200   1.8241   1.8626
  1.8932   1.8972   1.9098   1.9275   1.9679   1.9766   1.9788   1.9892
  2.0314   2.0511   2.0527   2.1125   2.1285   2.1373   2.1451   2.1508
  2.1577   2.1722   2.1968   2.2207   2.2346   2.2718   2.2908   2.3102
  2.3125   2.3130   2.3183   2.4136   2.4425   2.4861   2.5191   2.5801
  2.5912   2.6021   2.6143   2.6492   2.6556   2.6874   2.7190   2.7348
  2.7413   2.7494   2.7544   2.7600   2.8056   2.9005   2.9472   2.9680
  3.1403   3.1690   3.4078   3.4284   4.0809   4.0889   4.1022   4.1154
  4.1175   4.1199   4.1821   4.2556   4.3291   4.3297   4.3864   4.4587
  4.6922   4.7281
 --------------------------------------------------------------

          Ground-State Mulliken Net Atomic Charges

     Atom                 Charge (a.u.)
  ----------------------------------------
      1 C                    -0.180772
      2 C                     0.171102
      3 C                    -0.180824
      4 C                    -0.131229
      5 C                    -0.129339
      6 C                    -0.130253
      7 C                    -0.192676
      8 C                    -0.187196
      9 C                     0.158157
     10 C                    -0.178399
     11 C                    -0.132406
     12 C                    -0.129046
     13 C                    -0.130911
     14 C                    -0.186308
     15 H                     0.130218
     16 H                     0.129778
     17 H                     0.130375
     18 H                     0.129897
     19 H                     0.130517
     20 H                     0.128246
     21 H                     0.132396
     22 H                     0.130921
     23 H                     0.130210
     24 H                     0.129465
     25 H                     0.130250
     26 H                     0.127825
  ----------------------------------------
  Sum of atomic charges =     0.000000

 -----------------------------------------------------------------
                    Cartesian Multipole Moments
 -----------------------------------------------------------------
    Charge (ESU x 10^10)
                 0.0000
    Dipole Moment (Debye)
         X       0.0462      Y       0.0091      Z       0.0037
       Tot       0.0472
    Quadrupole Moments (Debye-Ang)
        XX     -71.1787     XY       0.3415     YY     -74.1317
        XZ      -0.3941     YZ       0.3365     ZZ     -85.3894
    Octopole Moments (Debye-Ang^2)
       XXX       1.7416    XXY      -1.7781    XYY       1.9651
       YYY      -0.4993    XXZ       6.0355    XYZ     -17.8076
       YYZ      -0.0304    XZZ      -2.1461    YZZ      -0.0407
       ZZZ      -0.6100
    Hexadecapole Moments (Debye-Ang^3)
      XXXX   -4713.7497   XXXY      33.9872   XXYY    -902.6957
      XYYY      17.5755   YYYY    -517.2781   XXXZ       3.9139
      XXYZ       3.3235   XYYZ       6.5527   YYYZ      -7.8817
      XXZZ    -960.9818   XYZZ       4.6654   YYZZ    -116.1893
      XZZZ      20.9751   YZZZ      -6.5027   ZZZZ    -188.2507
 -----------------------------------------------------------------
 Calculating analytic gradient of the SCF energy
 Gradient of SCF Energy
            1           2           3           4           5           6
    1  -0.0010599   0.0005297  -0.0000982   0.0002046  -0.0003190  -0.0001303
    2  -0.0000471   0.0002199  -0.0003741  -0.0002257   0.0001205   0.0001979
    3   0.0008671   0.0003796  -0.0001899   0.0002319  -0.0001456  -0.0000493
            7           8           9          10          11          12
    1  -0.0001051   0.0019382  -0.0023294   0.0015340  -0.0014367   0.0007330
    2   0.0003249   0.0004207  -0.0008485   0.0011506   0.0004521  -0.0007954
    3   0.0000301   0.0000380   0.0005867  -0.0009276   0.0004202  -0.0004341
           13          14          15          16          17          18
    1   0.0003679  -0.0000650  -0.0010299  -0.0007548   0.0003669   0.0009731
    2   0.0001048  -0.0003856  -0.0010207   0.0006581   0.0008463   0.0000971
    3  -0.0000300   0.0010066  -0.0004815  -0.0003950  -0.0003440  -0.0000168
           19          20          21          22          23          24
    1   0.0005662  -0.0003693   0.0006238   0.0014394  -0.0003530  -0.0009761
    2  -0.0007277  -0.0008247   0.0009729  -0.0006674  -0.0008149  -0.0001888
    3   0.0003258   0.0002839  -0.0015461  -0.0000430  -0.0004230   0.0000032
           25          26
    1  -0.0005831   0.0003328
    2   0.0006355   0.0007189
    3   0.0004797   0.0003732
 Max gradient component =       2.329E-03
 RMS gradient           =       7.187E-04
 Gradient time:  CPU 25.08 s  wall 8.59 s
 Geometry Optimization Parameters
   NAtoms,    NIC,     NZ,  NCons,   NDum,   NFix, NCnnct, MaxDiis
       26     181       0       0       0       0       0       0

 Cartesian Hessian Update
 Hessian updated using BFGS update


** GEOMETRY OPTIMIZATION IN DELOCALIZED INTERNAL COORDINATES **
   Searching for a Minimum

   Optimization Cycle:   4

                       Coordinates (Angstroms)
     ATOM                X               Y               Z
      1  C         0.4684887239   -0.4124442114    0.0128296226
      2  C         1.9212971736   -0.1985910702   -0.0145585682
      3  C         2.5094905684    1.0004830049   -0.4621803781
      4  C         3.8924179037    1.1651133455   -0.4539121786
      5  C         4.7250321807    0.1332340290   -0.0089886287
      6  C         4.1591797487   -1.0681438082    0.4233347418
      7  C         2.7746396997   -1.2316908438    0.4155209844
      8  C        -0.4859451524    0.5382970878   -0.0290476859
      9  C        -1.9340094064    0.2693469793   -0.0115579768
     10  C        -2.4717694000   -0.9052553295   -0.5679207206
     11  C        -3.8438126273   -1.1533642911   -0.5246267132
     12  C        -4.7077992000   -0.2278133517    0.0652924477
     13  C        -4.1893900916    0.9514306225    0.6085395560
     14  C        -2.8184748888    1.1993739473    0.5651668495
     15  H         0.1522070245   -1.4527382385    0.1080392260
     16  H         1.8768320614    1.8016711104   -0.8379534537
     17  H         4.3248006495    2.0990909158   -0.8081042394
     18  H         5.8054028768    0.2623086845   -0.0088935425
     19  H         4.7970745447   -1.8806431738    0.7660212557
     20  H         2.3388693340   -2.1701784019    0.7556417225
     21  H        -0.1943782811    1.5895859710   -0.0498985890
     22  H        -1.8044376583   -1.6164151654   -1.0504305767
     23  H        -4.2405202714   -2.0662120223   -0.9651812468
     24  H        -5.7786806729   -0.4187118364    0.0932573401
     25  H        -4.8555155049    1.6795768278    1.0675545432
     26  H        -2.4197561375    2.1179599742    0.9929526505
   Point Group: c1    Number of degrees of freedom:    72


   Energy is   -540.708967555

 Hessian updated using BFGS update

 72 Hessian modes will be used to form the next step
  Hessian Eigenvalues:
     0.004495    0.013000    0.019820    0.019909    0.022260    0.022492
     0.023080    0.023170    0.023569    0.023587    0.023702    0.023795
     0.024032    0.024037    0.024132    0.024133    0.024215    0.024228
     0.024272    0.024294    0.024297    0.024349    0.031071    0.159926
     0.159966    0.159977    0.159990    0.159993    0.159996    0.159996
     0.159998    0.160000    0.160028    0.160160    0.163029    0.219729
     0.219993    0.219997    0.220002    0.220249    0.231333    0.234528
     0.237767    0.250025    0.301002    0.352074    0.355592    0.366513
     0.366682    0.367632    0.367902    0.368631    0.368673    0.368717
     0.368942    0.369071    0.369647    0.369907    0.403373    0.426544
     0.428344    0.429777    0.430185    0.466472    0.467409    0.471862
     0.476649    0.479492    0.481639    0.484821    0.513938    0.578503

 Minimum search - taking simple RFO step
 Searching for Lamda that Minimizes Along All modes
 Value Taken    Lamda =  -0.00124217
 Calculated Step too Large.  Step scaled by  0.690384
 Step Taken.  Stepsize is  0.300000

                             Maximum     Tolerance    Cnvgd?
         Gradient           0.003304      0.000300      NO
         Displacement       0.207569      0.001200      NO
         Energy change     -0.000940      0.000001      NO


 New Cartesian Coordinates Obtained by Inverse Iteration

 Displacement from previous Coordinates is:  1.185911
 ----------------------------------------------------------------
             Standard Nuclear Orientation (Angstroms)
    I     Atom           X                Y                Z
 ----------------------------------------------------------------
    1      C       0.4786137871    -0.4326836905    -0.0187380525
    2      C       1.9267076106    -0.2043477661    -0.0325897357
    3      C       2.5061467243     1.0323072212    -0.3787665754
    4      C       3.8865972837     1.2063409610    -0.3561526747
    5      C       4.7275251648     0.1488751818     0.0037638496
    6      C       4.1717232347    -1.0879719392     0.3347683033
    7      C       2.7893216835    -1.2613862002     0.3121470349
    8      C      -0.4880226215     0.5089729198    -0.0173586646
    9      C      -1.9335400336     0.2464268450    -0.0062218117
   10      C      -2.4824508551    -0.9666086100    -0.4651901230
   11      C      -3.8561787418    -1.1927547968    -0.4194127507
   12      C      -4.7168814913    -0.2079548207     0.0713673007
   13      C      -4.1906078913     1.0088948495     0.5106236241
   14      C      -2.8166545663     1.2344080631     0.4659003441
   15      H       0.1780336530    -1.4793506744     0.0356500663
   16      H       1.8687358591     1.8572499185    -0.6863513075
   17      H       4.3113231994     2.1692874231    -0.6310496014
   18      H       5.8060261934     0.2867632470     0.0160337839
   19      H       4.8158454830    -1.9199193114     0.6102620627
   20      H       2.3610273001    -2.2271432832     0.5744743449
   21      H      -0.2028160573     1.5602616386     0.0216986880
   22      H      -1.8248456952    -1.7247389265    -0.8818198703
   23      H      -4.2587206743    -2.1353028318    -0.7838496352
   24      H      -5.7898535273    -0.3821880582     0.0996056464
   25      H      -4.8530111259     1.7843232875     0.8887394652
   26      H      -2.4128006986     2.1835101086     0.8133627301
 ----------------------------------------------------------------
 Molecular Point Group                 C1    NOp =  1
 Largest Abelian Subgroup              C1    NOp =  1
 Nuclear Repulsion Energy =         731.14581225 hartrees
 There are       48 alpha and       48 beta electrons
 Applying Cartesian multipole field
    Component          Value
    ---------          -----
     (2,0,0)        1.00000E-12
     (0,2,0)        2.00000E-11
     (0,0,2)       -3.00000E-11
 Nucleus-field energy     =     0.0000000097 hartrees
 Requested basis set is 6-31G(d)
 There are 80 shells and 234 basis functions
 A cutoff of  1.0D-11 yielded   2206 shell pairs
 There are     19897 function pairs
 Smallest overlap matrix eigenvalue = 4.58E-04
 Guess MOs from SCF MO coefficient file

 -----------------------------------------------------------------------
  General SCF calculation program by
  Eric Jon Sundstrom, Paul Horn, Yuezhi Mao, Dmitri Zuev, Alec White,
  David Stuck, Shaama M.S., Shane Yost, Joonho Lee, David Small,
  Daniel Levine, Susi Lehtola, Hugh Burton, Evgeny Epifanovsky,
  Bang C. Huynh
 -----------------------------------------------------------------------
 Exchange:     0.2000 Hartree-Fock + 0.0800 Slater + 0.7200 B88
 Correlation:  0.1900 VWN1RPA + 0.8100 LYP
 Using SG-1 standard quadrature grid
 using 6 threads for integral computing
 -------------------------------------------------------
 OpenMP Integral computing Module                
 Release: version 1.0, May 2013, Q-Chem Inc. Pittsburgh 
 -------------------------------------------------------
 A restricted SCF calculation will be
 performed using DIIS
 SCF converges when DIIS error is below 1.0e-08
 ---------------------------------------
  Cycle       Energy         DIIS error
 ---------------------------------------
    1    -540.6837936404      1.23e-03  
    2    -540.7091685528      1.46e-04  
    3    -540.7095783588      5.17e-05  
    4    -540.7095878931      3.89e-05  
    5    -540.7095989634      1.06e-05  
    6    -540.7095997710      3.95e-06  
    7    -540.7095998842      5.78e-07  
    8    -540.7095998858      3.15e-07  
    9    -540.7095998864      1.15e-07  
   10    -540.7095998870      2.18e-08  
   11    -540.7095998872      1.00e-08  
   12    -540.7095998867      2.29e-09  Convergence criterion met
 ---------------------------------------
 SCF time:   CPU 71.44s  wall 25.00s 
 SCF   energy in the final basis set =     -540.7095998867
 Total energy in the final basis set =     -540.7095998867

 --------------------------------------------------------------

                    Orbital Energies (a.u.)
 --------------------------------------------------------------

 Alpha MOs
 -- Occupied --
-10.1982 -10.1980 -10.1920 -10.1912 -10.1899 -10.1896 -10.1896 -10.1893
-10.1890 -10.1887 -10.1887 -10.1886 -10.1884 -10.1880  -0.8581  -0.8517
 -0.7964  -0.7564  -0.7431  -0.7427  -0.7069  -0.6326  -0.6052  -0.6038
 -0.5858  -0.5508  -0.5133  -0.5112  -0.4692  -0.4611  -0.4525  -0.4367
 -0.4268  -0.4185  -0.4161  -0.4112  -0.3772  -0.3708  -0.3646  -0.3527
 -0.3416  -0.3381  -0.3335  -0.3040  -0.2591  -0.2494  -0.2490  -0.2046
 -- Virtual --
 -0.0473   0.0013   0.0015   0.0163   0.0712   0.0950   0.0977   0.1040
  0.1394   0.1433   0.1569   0.1626   0.1673   0.1712   0.1767   0.1848
  0.1872   0.2164   0.2207   0.2571   0.2839   0.2878   0.3026   0.3065
  0.3307   0.3321   0.3485   0.3539   0.3916   0.4357   0.4662   0.4932
  0.5094   0.5261   0.5414   0.5460   0.5527   0.5557   0.5611   0.5682
  0.5727   0.5822   0.5911   0.5944   0.5989   0.6010   0.6042   0.6050
  0.6094   0.6175   0.6185   0.6273   0.6292   0.6424   0.6479   0.6667
  0.6738   0.6843   0.7267   0.7286   0.7650   0.7879   0.8215   0.8252
  0.8327   0.8373   0.8396   0.8408   0.8534   0.8579   0.8864   0.9050
  0.9133   0.9213   0.9276   0.9461   0.9469   0.9529   0.9629   1.0041
  1.0124   1.0256   1.0474   1.0572   1.0670   1.1006   1.1387   1.1463
  1.1711   1.1744   1.1855   1.2050   1.2162   1.2454   1.2657   1.2707
  1.3069   1.3774   1.4226   1.4280   1.4397   1.4480   1.4561   1.4613
  1.4878   1.4939   1.4957   1.4961   1.5066   1.5157   1.5171   1.5886
  1.6214   1.7392   1.7805   1.8119   1.8141   1.8195   1.8250   1.8613
  1.8944   1.8980   1.9102   1.9287   1.9684   1.9781   1.9801   1.9851
  2.0307   2.0518   2.0528   2.1137   2.1277   2.1344   2.1454   2.1557
  2.1594   2.1680   2.2030   2.2235   2.2362   2.2693   2.2969   2.3066
  2.3130   2.3147   2.3181   2.4239   2.4400   2.4917   2.5188   2.5783
  2.5933   2.5967   2.6124   2.6537   2.6573   2.6889   2.7188   2.7357
  2.7437   2.7533   2.7573   2.7632   2.8075   2.9018   2.9582   2.9692
  3.1567   3.1735   3.4098   3.4329   4.0798   4.0890   4.1011   4.1138
  4.1179   4.1196   4.1825   4.2514   4.3294   4.3297   4.3873   4.4601
  4.6922   4.7326
 --------------------------------------------------------------

          Ground-State Mulliken Net Atomic Charges

     Atom                 Charge (a.u.)
  ----------------------------------------
      1 C                    -0.184855
      2 C                     0.175082
      3 C                    -0.181067
      4 C                    -0.130981
      5 C                    -0.129335
      6 C                    -0.129989
      7 C                    -0.193940
      8 C                    -0.186109
      9 C                     0.168534
     10 C                    -0.180151
     11 C                    -0.131771
     12 C                    -0.129170
     13 C                    -0.130282
     14 C                    -0.190947
     15 H                     0.129007
     16 H                     0.129748
     17 H                     0.130284
     18 H                     0.129820
     19 H                     0.130422
     20 H                     0.127853
     21 H                     0.130054
     22 H                     0.130391
     23 H                     0.130204
     24 H                     0.129552
     25 H                     0.130197
     26 H                     0.127449
  ----------------------------------------
  Sum of atomic charges =     0.000000

 -----------------------------------------------------------------
                    Cartesian Multipole Moments
 -----------------------------------------------------------------
    Charge (ESU x 10^10)
                -0.0000
    Dipole Moment (Debye)
         X       0.0297      Y       0.0078      Z       0.0094
       Tot       0.0321
    Quadrupole Moments (Debye-Ang)
        XX     -71.0172     XY       0.2517     YY     -73.3511
        XZ      -0.2459     YZ       0.5228     ZZ     -86.2249
    Octopole Moments (Debye-Ang^2)
       XXX       0.9852    XXY      -1.0281    XYY       1.5535
       YYY      -0.2158    XXZ       5.6017    XYZ     -14.9495
       YYZ      -0.0614    XZZ      -1.6817    YZZ       0.0238
       ZZZ      -0.4123
    Hexadecapole Moments (Debye-Ang^3)
      XXXX   -4721.8672   XXXY      29.5239   XXYY    -898.5786
      XYYY      17.3187   YYYY    -539.4985   XXXZ       9.1015
      XXYZ       3.7123   XYYZ       6.3691   YYYZ      -8.4264
      XXZZ    -969.5195   XYZZ       5.1101   YYZZ    -120.1723
      XZZZ      21.6919   YZZZ      -9.2757   ZZZZ    -155.7921
 -----------------------------------------------------------------
 Calculating analytic gradient of the SCF energy
 Gradient of SCF Energy
            1           2           3           4           5           6
    1   0.0007033  -0.0002125   0.0003579  -0.0000942  -0.0004428  -0.0002872
    2  -0.0006724  -0.0003403  -0.0001028  -0.0003136   0.0000418   0.0002897
    3   0.0000493   0.0000206   0.0000119   0.0001844   0.0000453  -0.0001409
            7           8           9          10          11          12
    1   0.0002808   0.0004027  -0.0011642   0.0006288  -0.0009428   0.0007790
    2   0.0003228   0.0012163   0.0000071  -0.0000306   0.0004316  -0.0007248
    3  -0.0000594  -0.0006245   0.0011704  -0.0006446   0.0006152  -0.0003638
           13          14          15          16          17          18
    1   0.0006430  -0.0004323  -0.0006893  -0.0004488   0.0001961   0.0004921
    2  -0.0000815  -0.0003450  -0.0003340   0.0003220   0.0004357   0.0000629
    3  -0.0000999  -0.0000289   0.0001624  -0.0001774  -0.0001589  -0.0000065
           19          20          21          22          23          24
    1   0.0003163  -0.0002763   0.0004382   0.0006973  -0.0002134  -0.0005101
    2  -0.0003447  -0.0003824   0.0002516   0.0000930  -0.0004006  -0.0000156
    3   0.0001303   0.0001439  -0.0001955  -0.0001547  -0.0002408  -0.0000402
           25          26
    1  -0.0003185   0.0000971
    2   0.0002767   0.0003370
    3   0.0002399   0.0001622
 Max gradient component =       1.216E-03
 RMS gradient           =       4.332E-04
 Gradient time:  CPU 25.27 s  wall 8.76 s
 Geometry Optimization Parameters
   NAtoms,    NIC,     NZ,  NCons,   NDum,   NFix, NCnnct, MaxDiis
       26     181       0       0       0       0       0       0

 Cartesian Hessian Update
 Hessian updated using BFGS update


** GEOMETRY OPTIMIZATION IN DELOCALIZED INTERNAL COORDINATES **
   Searching for a Minimum

   Optimization Cycle:   5

                       Coordinates (Angstroms)
     ATOM                X               Y               Z
      1  C         0.4786137871   -0.4326836905   -0.0187380525
      2  C         1.9267076106   -0.2043477661   -0.0325897357
      3  C         2.5061467243    1.0323072212   -0.3787665754
      4  C         3.8865972837    1.2063409610   -0.3561526747
      5  C         4.7275251648    0.1488751818    0.0037638496
      6  C         4.1717232347   -1.0879719392    0.3347683033
      7  C         2.7893216835   -1.2613862002    0.3121470349
      8  C        -0.4880226215    0.5089729198   -0.0173586646
      9  C        -1.9335400336    0.2464268450   -0.0062218117
     10  C        -2.4824508551   -0.9666086100   -0.4651901230
     11  C        -3.8561787418   -1.1927547968   -0.4194127507
     12  C        -4.7168814913   -0.2079548207    0.0713673007
     13  C        -4.1906078913    1.0088948495    0.5106236241
     14  C        -2.8166545663    1.2344080631    0.4659003441
     15  H         0.1780336530   -1.4793506744    0.0356500663
     16  H         1.8687358591    1.8572499185   -0.6863513075
     17  H         4.3113231994    2.1692874231   -0.6310496014
     18  H         5.8060261934    0.2867632470    0.0160337839
     19  H         4.8158454830   -1.9199193114    0.6102620627
     20  H         2.3610273001   -2.2271432832    0.5744743449
     21  H        -0.2028160573    1.5602616386    0.0216986880
     22  H        -1.8248456952   -1.7247389265   -0.8818198703
     23  H        -4.2587206743   -2.1353028318   -0.7838496352
     24  H        -5.7898535273   -0.3821880582    0.0996056464
     25  H        -4.8530111259    1.7843232875    0.8887394652
     26  H        -2.4128006986    2.1835101086    0.8133627301
   Point Group: c1    Number of degrees of freedom:    72


   Energy is   -540.709599887

 Hessian updated using BFGS update

 72 Hessian modes will be used to form the next step
  Hessian Eigenvalues:
     0.004375    0.013008    0.019824    0.020001    0.022274    0.022800
     0.023132    0.023326    0.023583    0.023670    0.023703    0.023961
     0.024036    0.024124    0.024133    0.024155    0.024216    0.024272
     0.024293    0.024297    0.024318    0.024670    0.031542    0.159878
     0.159971    0.159978    0.159992    0.159994    0.159996    0.159997
     0.159999    0.160006    0.160128    0.160160    0.162495    0.219395
     0.219994    0.220000    0.220067    0.220186    0.230571    0.234393
     0.237673    0.249700    0.278491    0.352789    0.356134    0.366463
     0.366758    0.367630    0.367907    0.368631    0.368673    0.368716
     0.368942    0.369071    0.369661    0.370067    0.396984    0.426827
     0.428156    0.429894    0.430414    0.466788    0.467511    0.471774
     0.476614    0.479493    0.481181    0.482295    0.519280    0.579819

 Minimum search - taking simple RFO step
 Searching for Lamda that Minimizes Along All modes
 Value Taken    Lamda =  -0.00044945
 Step Taken.  Stepsize is  0.272363

                             Maximum     Tolerance    Cnvgd?
[...]
 performed using DIIS
 SCF converges when DIIS error is below 1.0e-08
 ---------------------------------------
  Cycle       Energy         DIIS error
 ---------------------------------------
    1    -540.7099412869      4.26e-05  
    2    -540.7099721583      5.06e-06  
    3    -540.7099726714      1.30e-06  
    4    -540.7099726813      7.28e-07  
    5    -540.7099726838      5.08e-07  
    6    -540.7099726859      9.90e-08  
    7    -540.7099726857      1.55e-08  
    8    -540.7099726862      6.15e-09  Convergence criterion met
 ---------------------------------------
 SCF time:   CPU 46.27s  wall 16.00s 
 SCF   energy in the final basis set =     -540.7099726862
 Total energy in the final basis set =     -540.7099726862

 --------------------------------------------------------------

                    Orbital Energies (a.u.)
 --------------------------------------------------------------

 Alpha MOs
 -- Occupied --
-10.1987 -10.1987 -10.1921 -10.1913 -10.1899 -10.1899 -10.1895 -10.1895
-10.1889 -10.1889 -10.1886 -10.1886 -10.1886 -10.1886  -0.8584  -0.8521
 -0.7966  -0.7571  -0.7435  -0.7432  -0.7075  -0.6342  -0.6057  -0.6044
 -0.5867  -0.5510  -0.5132  -0.5122  -0.4696  -0.4620  -0.4539  -0.4364
 -0.4270  -0.4187  -0.4150  -0.4101  -0.3761  -0.3729  -0.3655  -0.3535
 -0.3420  -0.3393  -0.3321  -0.3074  -0.2614  -0.2496  -0.2495  -0.2024
 -- Virtual --
 -0.0499   0.0013   0.0019   0.0178   0.0773   0.0941   0.0953   0.0982
  0.1334   0.1442   0.1577   0.1626   0.1675   0.1695   0.1845   0.1849
  0.1855   0.2226   0.2301   0.2623   0.2815   0.2849   0.3021   0.3060
  0.3337   0.3352   0.3521   0.3710   0.3979   0.4536   0.4667   0.4995
  0.5097   0.5263   0.5479   0.5500   0.5534   0.5599   0.5624   0.5705
  0.5709   0.5834   0.5888   0.5943   0.5992   0.6010   0.6029   0.6046
  0.6071   0.6176   0.6182   0.6278   0.6278   0.6380   0.6459   0.6652
  0.6679   0.6800   0.7273   0.7493   0.7707   0.7891   0.8152   0.8213
  0.8340   0.8383   0.8398   0.8411   0.8519   0.8584   0.8962   0.9041
  0.9148   0.9262   0.9329   0.9374   0.9481   0.9621   0.9750   1.0089
  1.0160   1.0435   1.0566   1.0627   1.1025   1.1127   1.1512   1.1517
  1.1814   1.1908   1.2023   1.2156   1.2510   1.2578   1.2980   1.3147
  1.3385   1.3439   1.4258   1.4305   1.4377   1.4561   1.4630   1.4656
  1.4765   1.4840   1.4936   1.4943   1.5140   1.5146   1.5180   1.5834
  1.6525   1.7358   1.7776   1.8146   1.8149   1.8199   1.8265   1.8545
  1.8984   1.8993   1.9099   1.9313   1.9657   1.9778   1.9795   1.9811
  2.0331   2.0518   2.0530   2.1190   2.1218   2.1264   2.1441   2.1544
  2.1620   2.1663   2.2202   2.2332   2.2353   2.2566   2.2964   2.3110
  2.3136   2.3137   2.3197   2.4336   2.4399   2.5210   2.5312   2.5390
  2.5909   2.5955   2.6153   2.6513   2.6724   2.6895   2.7169   2.7383
  2.7486   2.7585   2.7607   2.7706   2.8103   2.9001   2.9733   2.9848
  3.1867   3.1946   3.4108   3.4411   4.0753   4.0882   4.0995   4.1109
  4.1184   4.1221   4.1889   4.2449   4.3297   4.3323   4.3908   4.4650
  4.6924   4.7434
 --------------------------------------------------------------

          Ground-State Mulliken Net Atomic Charges

     Atom                 Charge (a.u.)
  ----------------------------------------
      1 C                    -0.188660
      2 C                     0.181978
      3 C                    -0.179864
      4 C                    -0.130769
      5 C                    -0.129489
      6 C                    -0.129338
      7 C                    -0.197941
      8 C                    -0.188638
      9 C                     0.181930
     10 C                    -0.179854
     11 C                    -0.130770
     12 C                    -0.129485
     13 C                    -0.129352
     14 C                    -0.197928
     15 H                     0.127081
     16 H                     0.129536
     17 H                     0.130206
     18 H                     0.129849
     19 H                     0.130252
     20 H                     0.127164
     21 H                     0.127073
     22 H                     0.129544
     23 H                     0.130209
     24 H                     0.129844
     25 H                     0.130253
     26 H                     0.127168
  ----------------------------------------
  Sum of atomic charges =     0.000000

 -----------------------------------------------------------------
                    Cartesian Multipole Moments
 -----------------------------------------------------------------
    Charge (ESU x 10^10)
                -0.0000
    Dipole Moment (Debye)
         X       0.0001      Y      -0.0000      Z      -0.0005
       Tot       0.0005
    Quadrupole Moments (Debye-Ang)
        XX     -70.7411     XY       0.0220     YY     -71.8309
        XZ      -0.0673     YZ       0.7798     ZZ     -87.8685
    Octopole Moments (Debye-Ang^2)
       XXX      -0.0066    XXY      -0.0179    XYY       0.0097
       YYY      -0.0466    XXZ      -0.2017    XYZ      -0.1437
       YYZ      -0.2264    XZZ      -0.0178    YZZ      -0.0120
       ZZZ      -0.8276
    Hexadecapole Moments (Debye-Ang^3)
      XXXX   -4749.2988   XXXY      18.9828   XXYY    -892.7976
      XYYY      17.8305   YYYY    -578.2659   XXXZ      16.1859
      XXYZ       4.2626   XYYZ       5.6607   YYYZ      -9.1536
      XXZZ    -989.3973   XYZZ       6.5312   YYZZ    -129.7203
      XZZZ      21.4463   YZZZ     -14.2490   ZZZZ     -92.8914
 -----------------------------------------------------------------
 Calculating analytic gradient of the SCF energy
 Gradient of SCF Energy
            1           2           3           4           5           6
    1  -0.0000273   0.0000369  -0.0000083   0.0000133  -0.0000191  -0.0000094
    2  -0.0000192   0.0000017  -0.0000146  -0.0000194   0.0000064   0.0000088
    3  -0.0000432   0.0000300  -0.0000199   0.0000126  -0.0000020  -0.0000009
            7           8           9          10          11          12
    1  -0.0000033   0.0000535  -0.0000834   0.0000270  -0.0000307   0.0000327
    2   0.0000108   0.0000228  -0.0000064   0.0000047   0.0000221  -0.0000208
    3   0.0000047   0.0000557  -0.0000109  -0.0000122  -0.0000020   0.0000072
           13          14          15          16          17          18
    1   0.0000132  -0.0000048  -0.0000038  -0.0000055   0.0000044   0.0000121
    2  -0.0000035  -0.0000031   0.0000048   0.0000087   0.0000087  -0.0000024
    3   0.0000021  -0.0000079  -0.0000384  -0.0000086   0.0000041  -0.0000032
           19          20          21          22          23          24
    1   0.0000058  -0.0000053   0.0000053   0.0000127  -0.0000060  -0.0000121
    2  -0.0000120  -0.0000110  -0.0000015   0.0000011  -0.0000084   0.0000018
    3  -0.0000054  -0.0000088   0.0000183   0.0000226  -0.0000084  -0.0000069
           25          26
    1  -0.0000063   0.0000086
    2   0.0000099   0.0000097
    3   0.0000123   0.0000092
 Max gradient component =       8.342E-05
 RMS gradient           =       1.944E-05
 Gradient time:  CPU 24.81 s  wall 8.48 s
 Geometry Optimization Parameters
   NAtoms,    NIC,     NZ,  NCons,   NDum,   NFix, NCnnct, MaxDiis
       26     181       0       0       0       0       0       0

 Cartesian Hessian Update
 Hessian updated using BFGS update


** GEOMETRY OPTIMIZATION IN DELOCALIZED INTERNAL COORDINATES **
   Searching for a Minimum

   Optimization Cycle:  14

                       Coordinates (Angstroms)
     ATOM                X               Y               Z
      1  C         0.4948360727   -0.4564198970   -0.0321837004
      2  C         1.9384975595   -0.2013478033   -0.0272301938
      3  C         2.5023273066    1.0888592046    0.0260311104
      4  C         3.8816888907    1.2682789302    0.0313363484
      5  C         4.7407313197    0.1658426140   -0.0175033051
      6  C         4.2012290811   -1.1195834731   -0.0728564535
      7  C         2.8192416549   -1.2981275433   -0.0780067804
      8  C        -0.4947978727    0.4573542620    0.0390220943
      9  C        -1.9384814134    0.2020473926    0.0337400915
     10  C        -2.5019725234   -1.0879737282   -0.0269518389
     11  C        -3.8812958328   -1.2677313517   -0.0323861817
     12  C        -4.7405572035   -0.1658197754    0.0235100100
     13  C        -4.2013793059    1.1194174184    0.0861422411
     14  C        -2.8194418490    1.2983106437    0.0913607202
     15  H         0.2297507126   -1.5108137281   -0.1001973883
     16  H         1.8556975978    1.9606113973    0.0618495676
     17  H         4.2907544137    2.2745549854    0.0726691955
     18  H         5.8177418222    0.3097011826   -0.0133326604
     19  H         4.8565579851   -1.9858846994   -0.1120655050
     20  H         2.4073807010   -2.3040515296   -0.1204727154
     21  H        -0.2297817057    1.5117313111    0.1076359784
     22  H        -1.8550991919   -1.9592650865   -0.0686846787
     23  H        -4.2901617710   -2.2738243261   -0.0796959453
     24  H        -5.8175340480   -0.3099261093    0.0188363098
     25  H        -4.8569337729    1.9852748761    0.1309285108
     26  H        -2.4077554303    2.3040555890    0.1394016102
   Point Group: c1    Number of degrees of freedom:    72


   Energy is   -540.709972686

 Hessian updated using BFGS update

 72 Hessian modes will be used to form the next step
  Hessian Eigenvalues:
     0.001075    0.002945    0.019686    0.020154    0.022166    0.022422
     0.022780    0.023321    0.023515    0.023623    0.023751    0.023964
     0.024052    0.024121    0.024212    0.024254    0.024278    0.024286
     0.024298    0.024579    0.024995    0.025461    0.030596    0.157797
     0.159886    0.159978    0.159991    0.159997    0.160034    0.160067
     0.160096    0.160297    0.160451    0.160585    0.164201    0.218724
     0.220025    0.220050    0.220395    0.221405    0.231322    0.235376
     0.236763    0.253101    0.283944    0.360476    0.360841    0.366492
     0.367621    0.367956    0.368636    0.368696    0.368738    0.368778
     0.368996    0.369082    0.369802    0.379106    0.404697    0.427856
     0.429463    0.430977    0.433487    0.467361    0.471587    0.471950
     0.476835    0.479465    0.481866    0.483150    0.529271    0.588023

 Minimum search - taking simple RFO step
 Searching for Lamda that Minimizes Along All modes
 Value Taken    Lamda =  -0.00000268
 Step Taken.  Stepsize is  0.032125

                             Maximum     Tolerance    Cnvgd?
         Gradient           0.000062      0.000300     YES
         Displacement       0.019454      0.001200      NO
         Energy change     -0.000001      0.000001     YES

 Final energy is   -540.70997268623660     


 ******************************
 **  OPTIMIZATION CONVERGED  **
 ******************************

                       Coordinates (Angstroms)
     ATOM                X               Y               Z
      1  C         0.4948360727   -0.4564198970   -0.0321837004
      2  C         1.9384975595   -0.2013478033   -0.0272301938
      3  C         2.5023273066    1.0888592046    0.0260311104
      4  C         3.8816888907    1.2682789302    0.0313363484
      5  C         4.7407313197    0.1658426140   -0.0175033051
      6  C         4.2012290811   -1.1195834731   -0.0728564535
      7  C         2.8192416549   -1.2981275433   -0.0780067804
      8  C        -0.4947978727    0.4573542620    0.0390220943
      9  C        -1.9384814134    0.2020473926    0.0337400915
     10  C        -2.5019725234   -1.0879737282   -0.0269518389
     11  C        -3.8812958328   -1.2677313517   -0.0323861817
     12  C        -4.7405572035   -0.1658197754    0.0235100100
     13  C        -4.2013793059    1.1194174184    0.0861422411
     14  C        -2.8194418490    1.2983106437    0.0913607202
     15  H         0.2297507126   -1.5108137281   -0.1001973883
     16  H         1.8556975978    1.9606113973    0.0618495676
     17  H         4.2907544137    2.2745549854    0.0726691955
     18  H         5.8177418222    0.3097011826   -0.0133326604
     19  H         4.8565579851   -1.9858846994   -0.1120655050
     20  H         2.4073807010   -2.3040515296   -0.1204727154
     21  H        -0.2297817057    1.5117313111    0.1076359784
     22  H        -1.8550991919   -1.9592650865   -0.0686846787
     23  H        -4.2901617710   -2.2738243261   -0.0796959453
     24  H        -5.8175340480   -0.3099261093    0.0188363098
     25  H        -4.8569337729    1.9852748761    0.1309285108
     26  H        -2.4077554303    2.3040555890    0.1394016102

Z-matrix Print:
$molecule
0 1
C 
C  1 1.407556
H  2 1.087803 1 119.016081
C  2 1.393483 1 121.371987 3 -179.902929 0
H  4 1.086955 2 119.714526 1 179.950590 0
C  4 1.395151 2 120.112915 1 -0.044902 0
H  6 1.086584 4 120.359641 2 -179.996947 0
C  6 1.398465 4 119.351497 2 -0.056363 0
H  8 1.087030 6 119.994881 4 -179.877591 0
C  8 1.390992 6 120.485691 4 0.051230 0
H  10 1.085986 8 119.129515 6 -179.834377 0
C  1 1.466030 2 118.716974 3 0.058223 0
H  12 1.089331 1 114.095134 2 -1.371467 0
C  12 1.348862 1 127.188623 2 178.516918 0
H  14 1.089336 12 118.720285 1 0.080239 0
C  14 1.466094 12 127.178875 1 179.984704 0
C  16 1.407553 14 118.720539 12 -178.832858 0
H  17 1.087804 16 119.014468 14 -0.072088 0
C  17 1.393478 16 121.369628 14 179.839105 0
H  19 1.086953 17 119.715745 16 -179.962804 0
C  19 1.395160 17 120.112196 16 0.028911 0
H  21 1.086585 19 120.358764 17 -179.977237 0
C  21 1.398450 19 119.354184 17 0.062946 0
H  23 1.087029 21 119.994296 19 179.894164 0
C  23 1.390998 21 120.484062 19 -0.055240 0
H  25 1.085972 23 119.132498 21 179.856064 0
$end


 --------------------------------------------------------------

                    Orbital Energies (a.u.)
 --------------------------------------------------------------

 Alpha MOs
 -- Occupied --
-10.1987 -10.1987 -10.1921 -10.1913 -10.1899 -10.1899 -10.1895 -10.1895
-10.1889 -10.1889 -10.1886 -10.1886 -10.1886 -10.1886  -0.8584  -0.8521
 -0.7966  -0.7571  -0.7435  -0.7432  -0.7075  -0.6342  -0.6057  -0.6044
 -0.5867  -0.5510  -0.5132  -0.5122  -0.4696  -0.4620  -0.4539  -0.4364
 -0.4270  -0.4187  -0.4150  -0.4101  -0.3761  -0.3729  -0.3655  -0.3535
 -0.3420  -0.3393  -0.3321  -0.3074  -0.2614  -0.2496  -0.2495  -0.2024
 -- Virtual --
 -0.0499   0.0013   0.0019   0.0178   0.0773   0.0941   0.0953   0.0982
  0.1334   0.1442   0.1577   0.1626   0.1675   0.1695   0.1845   0.1849
  0.1855   0.2226   0.2301   0.2623   0.2815   0.2849   0.3021   0.3060
  0.3337   0.3352   0.3521   0.3710   0.3979   0.4536   0.4667   0.4995
  0.5097   0.5263   0.5479   0.5500   0.5534   0.5599   0.5624   0.5705
  0.5709   0.5834   0.5888   0.5943   0.5992   0.6010   0.6029   0.6046
  0.6071   0.6176   0.6182   0.6278   0.6278   0.6380   0.6459   0.6652
  0.6679   0.6800   0.7273   0.7493   0.7707   0.7891   0.8152   0.8213
  0.8340   0.8383   0.8398   0.8411   0.8519   0.8584   0.8962   0.9041
  0.9148   0.9262   0.9329   0.9374   0.9481   0.9621   0.9750   1.0089
  1.0160   1.0435   1.0566   1.0627   1.1025   1.1127   1.1512   1.1517
  1.1814   1.1908   1.2023   1.2156   1.2510   1.2578   1.2980   1.3147
  1.3385   1.3439   1.4258   1.4305   1.4377   1.4561   1.4630   1.4656
  1.4765   1.4840   1.4936   1.4943   1.5140   1.5146   1.5180   1.5834
  1.6525   1.7358   1.7776   1.8146   1.8149   1.8199   1.8265   1.8545
  1.8984   1.8993   1.9099   1.9313   1.9657   1.9778   1.9795   1.9811
  2.0331   2.0518   2.0530   2.1190   2.1218   2.1264   2.1441   2.1544
  2.1620   2.1663   2.2202   2.2332   2.2353   2.2566   2.2964   2.3110
  2.3136   2.3137   2.3197   2.4336   2.4399   2.5210   2.5312   2.5390
  2.5909   2.5955   2.6153   2.6513   2.6724   2.6895   2.7169   2.7383
  2.7486   2.7585   2.7607   2.7706   2.8103   2.9001   2.9733   2.9848
  3.1867   3.1946   3.4108   3.4411   4.0753   4.0882   4.0995   4.1109
  4.1184   4.1221   4.1889   4.2449   4.3297   4.3323   4.3908   4.4650
  4.6924   4.7434
 --------------------------------------------------------------

          Ground-State Mulliken Net Atomic Charges

     Atom                 Charge (a.u.)
  ----------------------------------------
      1 C                    -0.188660
      2 C                     0.181978
      3 C                    -0.179864
      4 C                    -0.130769
      5 C                    -0.129489
      6 C                    -0.129338
      7 C                    -0.197941
      8 C                    -0.188638
      9 C                     0.181930
     10 C                    -0.179854
     11 C                    -0.130770
     12 C                    -0.129485
     13 C                    -0.129352
     14 C                    -0.197928
     15 H                     0.127081
     16 H                     0.129536
     17 H                     0.130206
     18 H                     0.129849
     19 H                     0.130252
     20 H                     0.127164
     21 H                     0.127073
     22 H                     0.129544
     23 H                     0.130209
     24 H                     0.129844
     25 H                     0.130253
     26 H                     0.127168
  ----------------------------------------
  Sum of atomic charges =     0.000000

 -----------------------------------------------------------------
                    Cartesian Multipole Moments
 -----------------------------------------------------------------
    Charge (ESU x 10^10)
                -0.0000
    Dipole Moment (Debye)
         X       0.0001      Y      -0.0000      Z      -0.0005
       Tot       0.0005
    Quadrupole Moments (Debye-Ang)
        XX     -70.7411     XY       0.0220     YY     -71.8309
        XZ      -0.0673     YZ       0.7798     ZZ     -87.8685
    Octopole Moments (Debye-Ang^2)
       XXX      -0.0066    XXY      -0.0179    XYY       0.0097
       YYY      -0.0466    XXZ      -0.2017    XYZ      -0.1437
       YYZ      -0.2264    XZZ      -0.0178    YZZ      -0.0120
       ZZZ      -0.8276
    Hexadecapole Moments (Debye-Ang^3)
      XXXX   -4749.2988   XXXY      18.9828   XXYY    -892.7976
      XYYY      17.8305   YYYY    -578.2659   XXXZ      16.1859
      XXYZ       4.2626   XYYZ       5.6607   YYYZ      -9.1536
      XXZZ    -989.3973   XYZZ       6.5312   YYZZ    -129.7203
      XZZZ      21.4463   YZZZ     -14.2490   ZZZZ     -92.8914
 -----------------------------------------------------------------
Archival summary:
1\1\node15\OPT\ProcedureUnspecified\6-31G*\1412\debashre\FriJun2111:29:272024FriJun2111:29:272024\0\\#,OPT,ProcedureUnspecified,6-31G*,\\0,1\C\C,1,1.40756\H,2,1.0878,1,119.016\C,2,1.39348,1,121.372,3,-179.903,0\H,4,1.08695,2,119.715,1,179.951,0\C,4,1.39515,2,120.113,1,-0.0449021,0\H,6,1.08658,4,120.36,2,-179.997,0\C,6,1.39847,4,119.351,2,-0.0563631,0\H,8,1.08703,6,119.995,4,-179.878,0\C,8,1.39099,6,120.486,4,0.05123,0\H,10,1.08599,8,119.13,6,-179.834,0\C,1,1.46603,2,118.717,3,0.0582233,0\H,12,1.08933,1,114.095,2,-1.37147,0\C,12,1.34886,1,127.189,2,178.517,0\H,14,1.08934,12,118.72,1,0.0802386,0\C,14,1.46609,12,127.179,1,179.985,0\C,16,1.40755,14,118.721,12,-178.833,0\H,17,1.0878,16,119.014,14,-0.0720877,0\C,17,1.39348,16,121.37,14,179.839,0\H,19,1.08695,17,119.716,16,-179.963,0\C,19,1.39516,17,120.112,16,0.0289105,0\H,21,1.08659,19,120.359,17,-179.977,0\C,21,1.39845,19,119.354,17,0.062946,0\H,23,1.08703,21,119.994,19,179.894,0\C,23,1.391,21,120.484,19,-0.05524,0\H,25,1.08597,23,119.132,21,179.856,0\\\@

 Total job time:  441.30s(wall), 1260.60s(cpu) 
 Fri Jun 21 11:29:27 2024

        *************************************************************
        *                                                           *
        *  Thank you very much for using Q-Chem.  Have a nice day.  *
        *                                                           *
        *************************************************************


