                  Welcome to Q-Chem
     A Quantum Leap Into The Future Of Chemistry


 Q-Chem 5.4 (devel), Q-Chem, Inc., Pleasanton, CA (2021)

 Yihan Shao,  Zhengting Gan,  E. Epifanovsky,  A. T. B. Gilbert,  M. Wormit,  
 J. Kussmann,  A. W. Lange,  A. Behn,  Jia Deng,  Xintian Feng,  D. Ghosh,  
 M. Goldey,  P. R. Horn,  L. D. Jacobson,  I. Kaliman,  T. Kus,  A. Landau,  
 Jie Liu,  E. I. Proynov,  R. M. Richard,  R. P. Steele,  E. J. Sundstrom,  
 H. L. Woodcock III,  P. M. Zimmerman,  D. Zuev,  B. Alam,  B. Albrecht,  
 A. Aldossary,  E. Alguire,  J. H. Andersen,  S. A. Baeppler,  D. Barton,  
 K. Begam,  Z. Benda,  Y. A. Bernard,  E. J. Berquist,  K. B. Bravaya,  
 H. Burton,  K. Carter-Fenk,  D. Casanova,  R. Chakraborty,  Chun-Min Chang,  
 Yunqing Chen,  A. Chien,  K. D. Closser,  V. Cofer-Shabica,  M. P. Coons,  
 S. Coriani,  S. Dasgupta,  A. L. Dempwolff,  M. Diedenhofen,  Hainam Do,  
 R. G. Edgar,  S. Ehlert,  Po-Tung Fang,  S. Faraji,  S. Fatehi,  
 Qingguo Feng,  J. Fosso-Tande,  J. Gayvert,  Qinghui Ge,  A. Ghysels,  
 G. Gidofalvi,  J. Gomes,  J. Gonthier,  C. Gonzalez-Espinoza,  S. Gulania,  
 A. Gunina,  D. Hait,  M. W. D. Hanson-Heine,  S. Hammes-Schiffer,  
 P. H. P. Harbach,  A. W. Hauser,  M. F. Herbst,  J. E. Herr,  
 E. G. Hohenstein,  Z. C. Holden,  S. Houck,  Xunkun Huang,  Kerwin Hui,  
 B. C. Huynh,  M. Ivanov,  T.-C. Jagau,  Hyunjun Ji,  Hanjie Jiang,  
 S. Kaehler,  B. Kaduk,  K. Khistyaev,  Jaehoon Kim,  P. Klunzinger,  K. Koh,  
 D. Kosenkov,  L. Koulias,  T. Kowalczyk,  C. M. Krauter,  A. Kunitsa,  
 Ka Un Lao,  A. Laurent,  K. V. Lawler,  Joonho Lee,  D. Lefrancois,  
 S. Lehtola,  D. S. Levine,  Rain Li,  Yi-Pei Li,  Jiashu Liang,  
 M. Liebenthal,  You-Sheng Lin,  Fenglai Liu,  Kuan-Yu Liu,  E. Livshits,  
 M. Loipersberger,  A. Luenser,  A. Manjanath,  P. Manohar,  E. Mansoor,  
 S. F. Manzer,  Shan-Ping Mao,  Yuezhi Mao,  N. Mardirossian,  
 A. V. Marenich,  T. Markovich,  L. A. Martinez-Martinez,  S. A. Maurer,  
 N. J. Mayhall,  S. Mason,  S. C. McKenzie,  P. F. McLaughlin,  
 M. F. S. J. Menger,  J.-M. Mewes,  P. Morgante,  A. F. Morrison,  
 J. W. Mullinax,  K. Nanda,  T. S. Nguyen-Beck,  R. Olivares-Amaya,  
 K. J. Oosterbaan,  G. Paran,  J. A. Parkhill,  Alexander C. Paul,  
 Suranjan K. Paul,  F. Pavosevic,  Zheng Pei,  T. M. Perrine,  F. Plasser,  
 P. Pokhilko,  S. Prager,  A. Prociuk,  E. Ramos,  B. Rana,  A. E. Rask,  
 A. Rettig,  D. R. Rehn,  F. Rob,  E. Rossomme,  T. Scheele,  M. Scheurer,  
 M. Schneider,  N. Sergueev,  S. M. Sharada,  S. Sharma,  W. Skomorowski,  
 D. W. Small,  T. Stauch,  C. J. Stein,  T. Stein,  Yu-Chuan Su,  
 S. P. Veccham,  Zhen Tao,  A. J. W. Thom,  A. Tkatchenko,  T. Tsuchimochi,  
 N. M. Tubman,  M. H. Vera,  M. L. Vidal,  L. Vogt,  O. Vydrov,  
 M. A. Watson,  J. Wenzel,  M. de Wergifosse,  T. A. Wesolowski,  A. White,  
 J. Witte,  A. Yamada,  Jun Yang,  K. Yao,  S. Yeganeh,  S. R. Yost,  
 Zhi-Qiang You,  A. Zech,  Igor Ying Zhang,  Yu Zhang,  Xing Zhang,  
 Yan Zhao,  Ying Zhu,  B. R. Brooks,  G. K. L. Chan,  C. J. Cramer,  
 M. S. Gordon,  S. Grimme,  W. J. Hehre,  A. Klamt,  M. W. Schmidt,  
 C. D. Sherrill,  D. G. Truhlar,  A. Aspuru-Guzik,  R. Baer,  A. T. Bell,  
 N. A. Besley,  Jeng-Da Chai,  A. E. DePrince, III,  R. A. DiStasio Jr.,  
 A. Dreuw,  B. D. Dunietz,  T. R. Furlani,  Chao-Ping Hsu,  Yousung Jung,  
 Jing Kong,  D. S. Lambrecht,  WanZhen Liang,  C. Ochsenfeld,  
 V. A. Rassolov,  L. V. Slipchenko,  J. E. Subotnik,  T. Van Voorhis,  
 J. M. Herbert,  A. I. Krylov,  P. M. W. Gill,  M. Head-Gordon

 Contributors to earlier versions of Q-Chem not listed above: 
 R. D. Adamson,  B. Austin,  J. Baker,  G. J. O. Beran,  K. Brandhorst,  
 S. T. Brown,  E. F. C. Byrd,  A. K. Chakraborty,  C.-L. Cheng,  
 Siu Hung Chien,  D. M. Chipman,  D. L. Crittenden,  H. Dachsel,  
 R. J. Doerksen,  A. D. Dutoi,  L. Fusti-Molnar,  W. A. Goddard III,  
 A. Golubeva-Zadorozhnaya,  S. R. Gwaltney,  G. Hawkins,  A. Heyden,  
 S. Hirata,  G. Kedziora,  F. J. Keil,  C. Kelley,  Jihan Kim,  R. A. King,  
 R. Z. Khaliullin,  P. P. Korambath,  W. Kurlancheek,  A. M. Lee,  M. S. Lee,  
 S. V. Levchenko,  Ching Yeh Lin,  D. Liotard,  R. C. Lochan,  I. Lotan,  
 P. E. Maslen,  N. Nair,  D. P. O'Neill,  D. Neuhauser,  E. Neuscamman,  
 C. M. Oana,  R. Olson,  B. Peters,  R. Peverati,  P. A. Pieniazek,  
 Y. M. Rhee,  J. Ritchie,  M. A. Rohrdanz,  E. Rosta,  N. J. Russ,  
 H. F. Schaefer III,  N. E. Schultz,  N. Shenvi,  A. C. Simmonett,  A. Sodt,  
 D. Stuck,  K. S. Thanthiriwatte,  V. Vanovschi,  Tao Wang,  A. Warshel,  
 C. F. Williams,  Q. Wu,  X. Xu,  W. Zhang

 Please cite Q-Chem as follows:
 Y. Shao et al., Mol. Phys. 113, 184-215 (2015)
 DOI: 10.1080/00268976.2014.952696

 Q-Chem 5.4.0 for Intel X86 EM64T Linux

 Parts of Q-Chem use Armadillo 9.800.1 (Horizon Scraper).
 http://arma.sourceforge.net/

 Q-Chem begins on Fri Jun 21 11:38:09 2024  

node20
Host: 0

     Scratch files written to /scratch/debashree/qchem1114//
Processing $rem in /home/debashree/Qchem5.3/qchem5.3/config/preferences:
Processing $rem in /home/debashree/.qchemrc:

Checking the input file for inconsistencies... 	...done.

--------------------------------------------------------------
User input:
--------------------------------------------------------------
$molecule
0 1
 C                 -1.42235400    0.95064340    0.38484840
 C                 -2.68142010    1.65750270    0.10061490
 C                 -2.72832573    2.92115567   -0.49192406
 C                 -3.93980454    3.53953622   -0.75137052
 C                 -5.13287995    2.91488728   -0.41646156
 C                 -5.10259398    1.66661635    0.18523941
 C                 -3.88987428    1.04829400    0.44291145
 C                 -0.25343480    1.13267340   -0.23687830
 C                  1.00782360    0.43216310    0.05333690
 C                  1.58324376    0.39530919    1.32520996
 C                  2.76556431   -0.28937351    1.55039611
 C                  3.40645066   -0.94518577    0.50878730
 C                  2.85543791   -0.90579348   -0.76242717
 C                  1.67153600   -0.22187120   -0.98608345
 H                 -1.49408230    0.20263320    1.15337710
 H                 -1.81841155    3.43264597   -0.73611540
 H                 -3.95262716    4.51143774   -1.20569115
 H                 -6.06992556    3.39746244   -0.61514103
 H                 -6.01825071    1.17603788    0.45342945
 H                 -3.87725795    0.08057735    0.90796621
 H                 -0.19899920    1.83039680   -1.05267250
 H                  1.11836723    0.91575020    2.13898324
 H                  3.19114016   -0.30322720    2.53520928
 H                  4.32412104   -1.47174532    0.68492410
 H                  3.34466072   -1.40441432   -1.57671107
 H                  1.25210265   -0.19856160   -1.97423450
$end

$rem
JOBTYPE			= opt
METHOD  		= rimp2
N_FROZEN_CORE           = fc 
BASIS   		= 6-31G*
AUX_BASIS		= rimp2-cc-pVDZ
GEOM_OPT_MAX_CYCLES 	= 250
MAX_SCF_CYCLES 		= 200
SYMMETRY 		= true
MEM_TOTAL 		= 20000
MEM_STATIC 		= 2000
$end
--------------------------------------------------------------
 ----------------------------------------------------------------
             Standard Nuclear Orientation (Angstroms)
    I     Atom           X                Y                Z
 ----------------------------------------------------------------
    1      C       0.4795126381    -0.4520058260     0.0627028822
    2      C       1.9303497975    -0.2096546978     0.0177177270
    3      C       2.5030543285     0.8569257221    -0.6783692745
    4      C       3.8742041932     1.0501487071    -0.6792659129
    5      C       4.7067095752     0.1773204540     0.0069446039
    6      C       4.1546030103    -0.8943550272     0.6909267791
    7      C       2.7824571814    -1.0857195094     0.6923191839
    8      C      -0.4820873229     0.4593136586    -0.1130054511
    9      C      -1.9328993068     0.2152846752    -0.0768566347
   10      C      -2.5642641801    -0.7416466184    -0.8742201328
   11      C      -3.9318664713    -0.9430440319    -0.7936959772
   12      C      -4.7027963206    -0.1868103008     0.0778266321
   13      C      -4.0929412576     0.7769227290     0.8655121540
   14      C      -2.7242845043     0.9762659141     0.7852841327
   15      H       0.2031147211    -1.4656713131     0.2893899855
   16      H       1.8809261229     1.5288942795    -1.2356935124
   17      H       4.2932007696     1.8751912524    -1.2223228956
   18      H       5.7687712701     0.3270040277     0.0017894126
   19      H       4.7884385375    -1.5788222383     1.2208112394
   20      H       2.3645262181    -1.9180914311     1.2265488256
   21      H      -0.2059620881     1.4861908142    -0.2697840092
   22      H      -1.9917865757    -1.3196858278    -1.5723147175
   23      H      -4.3966886298    -1.6824344962    -1.4169180972
   24      H      -5.7624881160    -0.3420832451     0.1357202399
   25      H      -4.6793362024     1.3714785724     1.5390582084
   26      H      -2.2612241910     1.7243545124     1.4007910502
 ----------------------------------------------------------------
 Molecular Point Group                 C1    NOp =  1
 Largest Abelian Subgroup              C1    NOp =  1
 Nuclear Repulsion Energy =         734.63106267 hartrees
 There are       48 alpha and       48 beta electrons
 Requested basis set is 6-31G(d)
 There are 80 shells and 234 basis functions

 Total QAlloc Memory Limit  20000 MB
 Mega-Array Size      1956 MB
 MEM_STATIC part      2000 MB
 Requested basis set is rimp2-cc-pVDZ
 There are 324 shells and 1020 basis functions
 A cutoff of  1.0D-11 yielded   2200 shell pairs
 There are     19903 function pairs
 Smallest overlap matrix eigenvalue = 4.30E-04

 Scale SEOQF with 1.000000e-02/1.000000e-01/1.000000e-01

 Standard Electronic Orientation quadrupole field applied
 Nucleus-field energy     =     0.0000000041 hartrees
 Guess from superposition of atomic densities
 Warning:  Energy on first SCF cycle will be non-variational
 SAD guess density has 96.000000 electrons

 -----------------------------------------------------------------------
  General SCF calculation program by
  Eric Jon Sundstrom, Paul Horn, Yuezhi Mao, Dmitri Zuev, Alec White,
  David Stuck, Shaama M.S., Shane Yost, Joonho Lee, David Small,
  Daniel Levine, Susi Lehtola, Hugh Burton, Evgeny Epifanovsky,
  Bang C. Huynh
 -----------------------------------------------------------------------
 Hartree-Fock
 using 6 threads for integral computing
 -------------------------------------------------------
 OpenMP Integral computing Module                
 Release: version 1.0, May 2013, Q-Chem Inc. Pittsburgh 
 -------------------------------------------------------
 A restricted SCF calculation will be
 performed using DIIS
 SCF converges when DIIS error is below 1.0e-08
 ---------------------------------------
  Cycle       Energy         DIIS error
 ---------------------------------------
    1    -543.3496869258      5.71e-02  
    2    -536.9862127330      3.73e-03  
    3    -537.1254647548      9.87e-04  
    4    -537.1354499516      3.75e-04  
    5    -537.1364830873      7.09e-05  
    6    -537.1365292268      2.07e-05  
    7    -537.1365344363      4.85e-06  
    8    -537.1365348220      1.80e-06  
    9    -537.1365348871      6.56e-07  
   10    -537.1365348950      2.46e-07  
   11    -537.1365348963      1.19e-07  
   12    -537.1365348968      4.08e-08  
   13    -537.1365348971      1.60e-08  
   14    -537.1365348967      6.86e-09  Convergence criterion met
 ---------------------------------------
 SCF time:   CPU 30.33s  wall 6.00s 
 SCF   energy in the final basis set =     -537.1365348967
 Total energy in the final basis set =     -537.1365348967


 --------------------------------------------------------------
  Generalized many-body perturbation theory program
  by Joonho Lee, Fazle Rob, Xintian Feng, Evgeny Epifanovsky

 No regularization used 
 (reg. param. = 0.0000e+00)
         1      0.00053666     MINRES Iteration
         2      0.00010106     MINRES Iteration
         3      0.00002467     MINRES Iteration
         4      0.00000796     MINRES Iteration
         5      0.00000336     MINRES Iteration
         6      0.00000165     MINRES Iteration
         7      0.00000068     MINRES Done

 In RI-MP2 calculation: 
 # of frozen core orbitals: 14

 Components of the RIMP2 correlation energy:
        aaaa    correlation energy =        -0.2373270385 a.u.
        abab    correlation energy =        -1.2870771813 a.u.
        bbbb    correlation energy =        -0.2373270385 a.u.
        non-Brillouin singles      =        -0.0000000000 a.u.
        total same-spin energy     =        -0.4746540769 a.u.
        total opposite-spin energy =        -1.2870771813 a.u.

 Total  RIMP2   correlation energy =        -1.7617312582 a.u.
        RIMP2         total energy =      -538.8982661549 a.u.

 RI-MP2 Gradient Time:  CPU 205.30 s  wall 39.41 s

 --------------------------------------------------------------

                    Orbital Energies (a.u.)
 --------------------------------------------------------------

 Alpha MOs
 -- Occupied --
-11.2406 -11.2398 -11.2353 -11.2329 -11.2310 -11.2306 -11.2299 -11.2295
-11.2294 -11.2291 -11.2287 -11.2283 -11.2280 -11.2276  -1.1599  -1.1524
 -1.0804  -1.0293  -1.0139  -1.0125  -0.9697  -0.8619  -0.8274  -0.8244
 -0.8051  -0.7577  -0.7005  -0.6977  -0.6509  -0.6398  -0.6269  -0.6133
 -0.5986  -0.5847  -0.5837  -0.5806  -0.5373  -0.5080  -0.5062  -0.4957
 -0.4900  -0.4853  -0.4775  -0.4042  -0.3359  -0.3330  -0.3321  -0.2885
 -- Virtual --
  0.1002   0.1463   0.1474   0.1570   0.2270   0.2440   0.2464   0.2633
  0.2929   0.2972   0.3103   0.3123   0.3241   0.3360   0.3404   0.3526
  0.3636   0.3800   0.3873   0.4307   0.4566   0.4771   0.4843   0.4876
  0.4981   0.5139   0.5208   0.5434   0.5670   0.6093   0.6724   0.6813
  0.7198   0.7426   0.7552   0.7569   0.7683   0.7706   0.7743   0.7884
  0.7990   0.8030   0.8197   0.8285   0.8297   0.8335   0.8406   0.8437
  0.8450   0.8485   0.8498   0.8568   0.8648   0.8842   0.8978   0.9091
  0.9270   0.9378   0.9595   0.9761   1.0141   1.0394   1.0835   1.0927
  1.1116   1.1168   1.1187   1.1201   1.1205   1.1238   1.1319   1.1432
  1.1622   1.1771   1.1818   1.1909   1.2018   1.2122   1.2175   1.2301
  1.2419   1.2593   1.2768   1.2957   1.3240   1.3316   1.3635   1.3861
  1.4001   1.4264   1.4445   1.4496   1.4564   1.4849   1.5101   1.5460
  1.5564   1.6056   1.6942   1.7059   1.7149   1.7169   1.7327   1.7345
  1.7724   1.7733   1.7766   1.7771   1.7974   1.7989   1.8096   1.8715
  1.9384   2.0437   2.0973   2.1140   2.1181   2.1237   2.1411   2.1535
  2.1830   2.1906   2.2502   2.2641   2.2762   2.3244   2.3301   2.3350
  2.3807   2.3951   2.3966   2.4371   2.4563   2.4614   2.4755   2.4769
  2.4899   2.5010   2.5256   2.5575   2.5623   2.6001   2.6258   2.6480
  2.6504   2.6525   2.6590   2.7329   2.7982   2.8300   2.8702   2.9244
  2.9365   2.9547   2.9923   3.0073   3.0287   3.0628   3.0979   3.1071
  3.1108   3.1201   3.1322   3.1394   3.1659   3.2771   3.2836   3.3517
  3.4979   3.5537   3.8282   3.8447   4.5255   4.5325   4.5396   4.5482
  4.5489   4.5705   4.6188   4.7096   4.7609   4.7631   4.8202   4.8904
  5.1399   5.1661
 --------------------------------------------------------------

          Ground-State Mulliken Net Atomic Charges

     Atom                 Charge (a.u.)
  ----------------------------------------
      1 C                    -0.164222
      2 C                     0.070372
      3 C                    -0.195588
      4 C                    -0.173222
      5 C                    -0.169485
      6 C                    -0.172510
      7 C                    -0.202969
      8 C                    -0.204775
      9 C                     0.043396
     10 C                    -0.187957
     11 C                    -0.173321
     12 C                    -0.169284
     13 C                    -0.171827
     14 C                    -0.191049
     15 H                     0.167400
     16 H                     0.172639
     17 H                     0.172492
     18 H                     0.172343
     19 H                     0.172861
     20 H                     0.171488
     21 H                     0.170561
     22 H                     0.174311
     23 H                     0.172095
     24 H                     0.171920
     25 H                     0.172383
     26 H                     0.171949
  ----------------------------------------
  Sum of atomic charges =     0.000000

 -----------------------------------------------------------------
                    Cartesian Multipole Moments
 -----------------------------------------------------------------
    Charge (ESU x 10^10)
                -0.0000
    Dipole Moment (Debye)
         X       0.0555      Y       0.0219      Z       0.0284
       Tot       0.0661
    Quadrupole Moments (Debye-Ang)
        XX     -71.7246     XY       0.7345     YY     -77.8004
        XZ      -0.2175     YZ      -0.2909     ZZ     -82.7950
    Octopole Moments (Debye-Ang^2)
       XXX       2.2770    XXY      -2.3892    XYY       3.4738
       YYY       0.1521    XXZ       7.6753    XYZ     -23.3483
       YYZ       0.1848    XZZ      -3.8414    YZZ      -0.0498
       ZZZ      -0.2965
    Hexadecapole Moments (Debye-Ang^3)
      XXXX   -4730.6050   XXXY      38.9363   XXYY    -927.2903
      XYYY       1.8764   YYYY    -419.4079   XXXZ     -10.7382
      XXYZ       1.9370   XYYZ       0.9399   YYYZ      -4.3635
      XXZZ    -941.8204   XYZZ      -1.7161   YYZZ    -105.9461
      XZZZ      -1.0999   YZZZ       4.2671   ZZZZ    -303.2322
 -----------------------------------------------------------------
 DrvMan is completing analytic gradient of the MP2 energy
 MP2 relaxed dipole moment
            1
    1   0.0218426
    2   0.0086256
    3   0.0111686
	Magnitude:	 0.026 au	 0.066 Debye
 MP2 energy read as -538.898266
 Full Analytical Gradient of MP2 Energy (in au.)
             1             2             3             4             5
    1   -0.01199377    0.00846966    0.00031308    0.00052118    0.00089317
    2    0.00321325   -0.00026689    0.00035012    0.00071192   -0.00028607
    3    0.00180489   -0.00019201   -0.00095331   -0.00111951    0.00014727
             6             7             8             9            10
    1    0.00111686   -0.00014004    0.00905806   -0.00357896   -0.00352274
    2   -0.00023308   -0.00068744   -0.00462393    0.00307425   -0.00010277
    3    0.00020729    0.00079370    0.00282244   -0.00178299   -0.00186829
            11            12            13            14            15
    1    0.00193426   -0.00131097   -0.00134737    0.00044790    0.00545661
    2   -0.00128287    0.00117819   -0.00015723   -0.00080313    0.01123460
    3   -0.00176579    0.00127976    0.00042887    0.00129368   -0.00198346
            16            17            18            19            20
    1    0.00763855   -0.00409839   -0.01072779   -0.00628637    0.00459849
    2   -0.00668605   -0.00826477   -0.00144991    0.00695854    0.00853729
    3    0.00614434    0.00558260    0.00012182   -0.00534854   -0.00546684
            21            22            23            24            25
    1   -0.00497913   -0.00840641    0.00458270    0.01069859    0.00578149
    2   -0.01181772    0.00587376    0.00740703    0.00158155   -0.00596497
    3    0.00049333    0.00681314    0.00635797   -0.00056985   -0.00694569
            26
    1   -0.00511868
    2   -0.00749363
    3   -0.00629484
 Gradient time:  CPU 0.24 s  wall 3.81 s
 Geometry Optimization Parameters
   NAtoms,    NIC,     NZ,  NCons,   NDum,   NFix, NCnnct, MaxDiis
       26     181       0       0       0       0       0       0


** GEOMETRY OPTIMIZATION IN DELOCALIZED INTERNAL COORDINATES **
   Searching for a Minimum

   Optimization Cycle:   1

                       Coordinates (Angstroms)
     ATOM                X               Y               Z
      1  C         0.4795126381   -0.4520058260    0.0627028822
      2  C         1.9303497975   -0.2096546978    0.0177177270
      3  C         2.5030543285    0.8569257221   -0.6783692745
      4  C         3.8742041932    1.0501487071   -0.6792659129
      5  C         4.7067095752    0.1773204540    0.0069446039
      6  C         4.1546030103   -0.8943550272    0.6909267791
      7  C         2.7824571814   -1.0857195094    0.6923191839
      8  C        -0.4820873229    0.4593136586   -0.1130054511
      9  C        -1.9328993068    0.2152846752   -0.0768566347
     10  C        -2.5642641801   -0.7416466184   -0.8742201328
     11  C        -3.9318664713   -0.9430440319   -0.7936959772
     12  C        -4.7027963206   -0.1868103008    0.0778266321
     13  C        -4.0929412576    0.7769227290    0.8655121540
     14  C        -2.7242845043    0.9762659141    0.7852841327
     15  H         0.2031147211   -1.4656713131    0.2893899855
     16  H         1.8809261229    1.5288942795   -1.2356935124
     17  H         4.2932007696    1.8751912524   -1.2223228956
     18  H         5.7687712701    0.3270040277    0.0017894126
     19  H         4.7884385375   -1.5788222383    1.2208112394
     20  H         2.3645262181   -1.9180914311    1.2265488256
     21  H        -0.2059620881    1.4861908142   -0.2697840092
     22  H        -1.9917865757   -1.3196858278   -1.5723147175
     23  H        -4.3966886298   -1.6824344962   -1.4169180972
     24  H        -5.7624881160   -0.3420832451    0.1357202399
     25  H        -4.6793362024    1.3714785724    1.5390582084
     26  H        -2.2612241910    1.7243545124    1.4007910502
   Point Group: c1    Number of degrees of freedom:    72


   Energy is   -538.898266155


 Attempting to generate delocalized internal coordinates
 Initial Hessian constructed with Jon Baker's OPTIMIZE code

 72 Hessian modes will be used to form the next step
  Hessian Eigenvalues:
     0.012931    0.012932    0.019812    0.019812    0.022249    0.022250
     0.023086    0.023086    0.023567    0.023567    0.023697    0.023697
     0.024028    0.024028    0.024132    0.024132    0.024208    0.024208
     0.024271    0.024271    0.024295    0.024295    0.030816    0.159961
     0.159961    0.159973    0.159973    0.159992    0.159993    0.159996
     0.159996    0.159997    0.159997    0.160000    0.160000    0.219992
     0.219992    0.220000    0.220000    0.220014    0.220014    0.234681
     0.234681    0.249994    0.249994    0.355451    0.355462    0.366239
     0.366239    0.367618    0.367618    0.368631    0.368631    0.368714
     0.368715    0.369071    0.369072    0.369778    0.369778    0.427334
     0.427337    0.429844    0.429845    0.466899    0.466900    0.471648
     0.471650    0.479466    0.479467    0.481936    0.481941    0.580120

 Minimum search - taking simple RFO step
 Searching for Lamda that Minimizes Along All modes
 Value Taken    Lamda =  -0.00869245
 Step Taken.  Stepsize is  0.242403

                             Maximum     Tolerance    Cnvgd?
         Gradient           0.035423      0.000300      NO
         Displacement       0.132807      0.001200      NO
         Energy change     *********      0.000001      NO


 New Cartesian Coordinates Obtained by Inverse Iteration

 Displacement from previous Coordinates is:  0.868784
 ----------------------------------------------------------------
             Standard Nuclear Orientation (Angstroms)
    I     Atom           X                Y                Z
 ----------------------------------------------------------------
    1      C       0.4644311100    -0.4378221412     0.0529389902
    2      C       1.9153869071    -0.2147924152     0.0093024904
    3      C       2.4886468312     0.8881651653    -0.6472347248
    4      C       3.8710231644     1.0748553309    -0.6481492349
    5      C       4.7086828339     0.1576604429    -0.0044397079
    6      C       4.1515307817    -0.9514210019     0.6384957872
    7      C       2.7683596670    -1.1359519026     0.6417728529
    8      C      -0.4758980866     0.5169864252    -0.0856628327
    9      C      -1.9250211659     0.2568643905    -0.0477924462
   10      C      -2.5074254598    -0.7694075693    -0.8070586159
   11      C      -3.8829635999    -1.0043943845    -0.7463614737
   12      C      -4.6979991293    -0.2130285971     0.0684533246
   13      C      -4.1284505283     0.8186195712     0.8219947273
   14      C      -2.7539865460     1.0525119823     0.7621495931
   15      H       0.1460564117    -1.4663026840     0.2377250815
   16      H       1.8506161698     1.5929446499    -1.1774231694
   17      H       4.2971917207     1.9323435716    -1.1648049007
   18      H       5.7867475492     0.3021702791    -0.0122139124
   19      H       4.7938289583    -1.6739994576     1.1375558149
   20      H       2.3392811681    -2.0004474525     1.1470446909
   21      H      -0.1734077561     1.5585704077    -0.2182412764
   22      H      -1.8785347437    -1.3760724943    -1.4568187888
   23      H      -4.3194884529    -1.8023088192    -1.3435393328
   24      H      -5.7693465283    -0.3960095577     0.1122028798
   25      H      -4.7545129304     1.4407433646     1.4582573064
   26      H      -2.3135051489     1.8547936517     1.3527433190
 ----------------------------------------------------------------
 Molecular Point Group                 C1    NOp =  1
 Largest Abelian Subgroup              C1    NOp =  1
 Nuclear Repulsion Energy =         731.62934643 hartrees
 There are       48 alpha and       48 beta electrons
 Applying Cartesian multipole field
    Component          Value
    ---------          -----
     (2,0,0)        1.00000E-12
     (0,2,0)        2.00000E-11
     (0,0,2)       -3.00000E-11
 Nucleus-field energy     =     0.0000000051 hartrees
 Requested basis set is 6-31G(d)
 There are 80 shells and 234 basis functions
 Requested basis set is rimp2-cc-pVDZ
 There are 324 shells and 1020 basis functions
 A cutoff of  1.0D-11 yielded   2201 shell pairs
 There are     19930 function pairs
 Smallest overlap matrix eigenvalue = 4.69E-04
 Guess MOs from SCF MO coefficient file

 -----------------------------------------------------------------------
  General SCF calculation program by
  Eric Jon Sundstrom, Paul Horn, Yuezhi Mao, Dmitri Zuev, Alec White,
  David Stuck, Shaama M.S., Shane Yost, Joonho Lee, David Small,
  Daniel Levine, Susi Lehtola, Hugh Burton, Evgeny Epifanovsky,
  Bang C. Huynh
 -----------------------------------------------------------------------
 Hartree-Fock
 using 6 threads for integral computing
 -------------------------------------------------------
 OpenMP Integral computing Module                
 Release: version 1.0, May 2013, Q-Chem Inc. Pittsburgh 
 -------------------------------------------------------
 A restricted SCF calculation will be
 performed using DIIS
 SCF converges when DIIS error is below 1.0e-08
 ---------------------------------------
  Cycle       Energy         DIIS error
 ---------------------------------------
    1    -537.1192250989      1.03e-03  
    2    -537.1320076792      3.15e-04  
    3    -537.1338187417      9.48e-05  
    4    -537.1339640371      3.80e-05  
    5    -537.1339904771      1.37e-05  
    6    -537.1339931763      4.24e-06  
    7    -537.1339934645      1.19e-06  
    8    -537.1339934900      4.20e-07  
    9    -537.1339934933      1.51e-07  
   10    -537.1339934941      6.11e-08  
   11    -537.1339934944      3.09e-08  
   12    -537.1339934946      1.17e-08  
   13    -537.1339934948      4.13e-09  Convergence criterion met
 ---------------------------------------
 SCF time:   CPU 28.14s  wall 5.00s 
 SCF   energy in the final basis set =     -537.1339934948
 Total energy in the final basis set =     -537.1339934948


 --------------------------------------------------------------
  Generalized many-body perturbation theory program
  by Joonho Lee, Fazle Rob, Xintian Feng, Evgeny Epifanovsky

 No regularization used 
 (reg. param. = 0.0000e+00)
         1      0.00054841     MINRES Iteration
         2      0.00010395     MINRES Iteration
         3      0.00002598     MINRES Iteration
         4      0.00000909     MINRES Iteration
         5      0.00000415     MINRES Iteration
         6      0.00000200     MINRES Iteration
         7      0.00000081     MINRES Done

 In RI-MP2 calculation: 
 # of frozen core orbitals: 14

 Components of the RIMP2 correlation energy:
        aaaa    correlation energy =        -0.2378923359 a.u.
        abab    correlation energy =        -1.2930659470 a.u.
        bbbb    correlation energy =        -0.2378923359 a.u.
        non-Brillouin singles      =        -0.0000000000 a.u.
        total same-spin energy     =        -0.4757846719 a.u.
        total opposite-spin energy =        -1.2930659470 a.u.

 Total  RIMP2   correlation energy =        -1.7688506189 a.u.
        RIMP2         total energy =      -538.9028441136 a.u.

 RI-MP2 Gradient Time:  CPU 203.96 s  wall 35.40 s

 --------------------------------------------------------------

                    Orbital Energies (a.u.)
 --------------------------------------------------------------

 Alpha MOs
 -- Occupied --
-11.2440 -11.2429 -11.2389 -11.2371 -11.2366 -11.2363 -11.2359 -11.2354
-11.2349 -11.2345 -11.2343 -11.2339 -11.2336 -11.2331  -1.1549  -1.1463
 -1.0771  -1.0254  -1.0097  -1.0083  -0.9643  -0.8585  -0.8237  -0.8215
 -0.8003  -0.7521  -0.6954  -0.6913  -0.6477  -0.6371  -0.6237  -0.6093
 -0.5944  -0.5812  -0.5802  -0.5762  -0.5345  -0.5051  -0.5040  -0.4933
 -0.4887  -0.4829  -0.4780  -0.4043  -0.3359  -0.3320  -0.3309  -0.2840
 -- Virtual --
  0.0949   0.1432   0.1442   0.1565   0.2235   0.2408   0.2429   0.2576
  0.2901   0.2936   0.3069   0.3097   0.3204   0.3308   0.3348   0.3492
  0.3613   0.3737   0.3825   0.4280   0.4528   0.4719   0.4775   0.4816
  0.4964   0.5084   0.5169   0.5423   0.5643   0.6057   0.6703   0.6832
  0.7206   0.7387   0.7545   0.7562   0.7667   0.7678   0.7704   0.7792
  0.7925   0.7995   0.8177   0.8257   0.8291   0.8339   0.8386   0.8411
  0.8420   0.8433   0.8459   0.8546   0.8602   0.8840   0.8950   0.9040
  0.9253   0.9373   0.9523   0.9740   1.0116   1.0372   1.0820   1.0946
  1.1026   1.1069   1.1110   1.1126   1.1147   1.1160   1.1270   1.1372
  1.1556   1.1662   1.1740   1.1855   1.1973   1.2045   1.2104   1.2248
  1.2404   1.2623   1.2706   1.2849   1.3152   1.3262   1.3612   1.3731
  1.3971   1.4165   1.4364   1.4384   1.4507   1.4808   1.5052   1.5428
  1.5591   1.6041   1.6918   1.6954   1.7058   1.7071   1.7236   1.7250
  1.7668   1.7683   1.7721   1.7736   1.7922   1.7956   1.7963   1.8664
  1.9254   2.0391   2.0930   2.1060   2.1138   2.1182   2.1285   2.1530
  2.1648   2.1691   2.2324   2.2460   2.2715   2.3025   2.3049   2.3157
  2.3581   2.3764   2.3783   2.4257   2.4486   2.4532   2.4608   2.4630
  2.4717   2.4906   2.5131   2.5439   2.5522   2.5936   2.6144   2.6374
  2.6384   2.6419   2.6474   2.7254   2.7809   2.8156   2.8586   2.9113
  2.9219   2.9476   2.9738   2.9845   3.0059   3.0425   3.0731   3.0841
  3.0962   3.1001   3.1096   3.1139   3.1555   3.2579   3.2783   3.3296
  3.4890   3.5371   3.7857   3.8023   4.5107   4.5167   4.5324   4.5411
  4.5420   4.5600   4.6082   4.6965   4.7536   4.7560   4.8107   4.8818
  5.1239   5.1518
 --------------------------------------------------------------

          Ground-State Mulliken Net Atomic Charges

     Atom                 Charge (a.u.)
  ----------------------------------------
      1 C                    -0.173330
      2 C                     0.068122
      3 C                    -0.193526
      4 C                    -0.175386
      5 C                    -0.169835
      6 C                    -0.174690
      7 C                    -0.200025
      8 C                    -0.200250
      9 C                     0.044673
     10 C                    -0.188044
     11 C                    -0.175456
     12 C                    -0.169497
     13 C                    -0.174649
     14 C                    -0.190530
     15 H                     0.168899
     16 H                     0.173899
     17 H                     0.172956
     18 H                     0.172860
     19 H                     0.173344
     20 H                     0.172653
     21 H                     0.170673
     22 H                     0.175875
     23 H                     0.172564
     24 H                     0.172533
     25 H                     0.172859
     26 H                     0.173308
  ----------------------------------------
  Sum of atomic charges =     0.000000

 -----------------------------------------------------------------
                    Cartesian Multipole Moments
 -----------------------------------------------------------------
    Charge (ESU x 10^10)
                 0.0000
    Dipole Moment (Debye)
         X       0.0552      Y       0.0073      Z       0.0182
       Tot       0.0586
    Quadrupole Moments (Debye-Ang)
        XX     -71.9779     XY       0.6877     YY     -77.1345
        XZ      -0.3902     YZ      -0.1435     ZZ     -83.8992
    Octopole Moments (Debye-Ang^2)
       XXX       2.4177    XXY      -2.8371    XYY       3.1208
       YYY      -0.3274    XXZ       7.8872    XYZ     -23.4008
       YYZ       0.1670    XZZ      -3.4572    YZZ      -0.0323
       ZZZ      -0.5106
    Hexadecapole Moments (Debye-Ang^3)
      XXXX   -4719.8668   XXXY      43.3545   XXYY    -923.4703
      XYYY      10.2196   YYYY    -451.2086   XXXZ      -6.4202
      XXYZ       2.1063   XYYZ       4.0131   YYYZ      -5.5364
      XXZZ    -949.0244   XYZZ       0.8156   YYZZ    -109.0026
      XZZZ       8.2987   YZZZ       1.9007   ZZZZ    -283.6464
 -----------------------------------------------------------------
 DrvMan is completing analytic gradient of the MP2 energy
 MP2 relaxed dipole moment
            1
    1   0.0217318
    2   0.0028680
    3   0.0071645
	Magnitude:	 0.023 au	 0.059 Debye
 MP2 energy read as -538.902844
 Full Analytical Gradient of MP2 Energy (in au.)
             1             2             3             4             5
    1   -0.00289518    0.00091669   -0.00116085    0.00042714    0.00094293
    2    0.00261715    0.00074687   -0.00039231    0.00056688    0.00012182
    3    0.00170025   -0.00011196   -0.00002031   -0.00060857    0.00000410
             6             7             8             9            10
    1    0.00044223   -0.00102094    0.00276321   -0.00054455    0.00048782
    2   -0.00059330   -0.00052727   -0.00314128   -0.00075456    0.00174534
    3    0.00034368    0.00043801    0.00094261   -0.00102246   -0.00063416
            11            12            13            14            15
    1   -0.00006216   -0.00125933   -0.00075252    0.00128053    0.00092008
    2   -0.00029800    0.00014442    0.00038232   -0.00048634   -0.00098145
    3   -0.00091299    0.00027375    0.00045946    0.00158745   -0.00037710
            16            17            18            19            20
    1   -0.00034564   -0.00001428    0.00033199    0.00007075    0.00005524
    2    0.00068558    0.00029767    0.00005818   -0.00028899   -0.00036350
    3    0.00000423   -0.00016240    0.00001426    0.00020279    0.00023389
            21            22            23            24            25
    1   -0.00025486   -0.00002799    0.00003531   -0.00030706   -0.00004043
    2    0.00098104   -0.00071428   -0.00031148   -0.00017911    0.00034473
    3   -0.00248200   -0.00028176   -0.00015051    0.00006994    0.00017983
            26
    1    0.00001190
    2    0.00033987
    3    0.00030999
 Gradient time:  CPU 0.23 s  wall 0.78 s
 Geometry Optimization Parameters
   NAtoms,    NIC,     NZ,  NCons,   NDum,   NFix, NCnnct, MaxDiis
       26     181       0       0       0       0       0       0

 Cartesian Hessian Update
 Hessian updated using BFGS update


** GEOMETRY OPTIMIZATION IN DELOCALIZED INTERNAL COORDINATES **
   Searching for a Minimum

   Optimization Cycle:   2

                       Coordinates (Angstroms)
     ATOM                X               Y               Z
      1  C         0.4644311100   -0.4378221412    0.0529389902
      2  C         1.9153869071   -0.2147924152    0.0093024904
      3  C         2.4886468312    0.8881651653   -0.6472347248
      4  C         3.8710231644    1.0748553309   -0.6481492349
      5  C         4.7086828339    0.1576604429   -0.0044397079
      6  C         4.1515307817   -0.9514210019    0.6384957872
      7  C         2.7683596670   -1.1359519026    0.6417728529
      8  C        -0.4758980866    0.5169864252   -0.0856628327
      9  C        -1.9250211659    0.2568643905   -0.0477924462
     10  C        -2.5074254598   -0.7694075693   -0.8070586159
     11  C        -3.8829635999   -1.0043943845   -0.7463614737
     12  C        -4.6979991293   -0.2130285971    0.0684533246
     13  C        -4.1284505283    0.8186195712    0.8219947273
     14  C        -2.7539865460    1.0525119823    0.7621495931
     15  H         0.1460564117   -1.4663026840    0.2377250815
     16  H         1.8506161698    1.5929446499   -1.1774231694
     17  H         4.2971917207    1.9323435716   -1.1648049007
     18  H         5.7867475492    0.3021702791   -0.0122139124
     19  H         4.7938289583   -1.6739994576    1.1375558149
     20  H         2.3392811681   -2.0004474525    1.1470446909
     21  H        -0.1734077561    1.5585704077   -0.2182412764
     22  H        -1.8785347437   -1.3760724943   -1.4568187888
     23  H        -4.3194884529   -1.8023088192   -1.3435393328
     24  H        -5.7693465283   -0.3960095577    0.1122028798
     25  H        -4.7545129304    1.4407433646    1.4582573064
     26  H        -2.3135051489    1.8547936517    1.3527433190
   Point Group: c1    Number of degrees of freedom:    72


   Energy is   -538.902844114

 Hessian updated using BFGS update

 72 Hessian modes will be used to form the next step
  Hessian Eigenvalues:
     0.011887    0.012946    0.019806    0.019813    0.022246    0.022293
     0.023071    0.023135    0.023561    0.023574    0.023695    0.023701
     0.024025    0.024031    0.024132    0.024133    0.024208    0.024209
     0.024269    0.024271    0.024295    0.024295    0.030938    0.157420
     0.159962    0.159972    0.159986    0.159992    0.159994    0.159996
     0.159996    0.159997    0.159997    0.160000    0.160130    0.212384
     0.219992    0.219993    0.220000    0.220000    0.221181    0.234465
     0.235261    0.247164    0.250120    0.354544    0.355492    0.366120
     0.366633    0.367617    0.367926    0.368631    0.368670    0.368715
     0.368931    0.369071    0.369457    0.369775    0.387488    0.427265
     0.427391    0.429840    0.429921    0.466855    0.466910    0.471642
     0.477436    0.479320    0.479480    0.481935    0.521222    0.575509

 Minimum search - taking simple RFO step
 Searching for Lamda that Minimizes Along All modes
 Value Taken    Lamda =  -0.00111629
 Step Taken.  Stepsize is  0.271424

                             Maximum     Tolerance    Cnvgd?
         Gradient           0.003161      0.000300      NO
         Displacement       0.163441      0.001200      NO
         Energy change     -0.004578      0.000001      NO


 New Cartesian Coordinates Obtained by Inverse Iteration

 Displacement from previous Coordinates is:  0.872018
 ----------------------------------------------------------------
             Standard Nuclear Orientation (Angstroms)
    I     Atom           X                Y                Z
 ----------------------------------------------------------------
    1      C       0.4561677072    -0.4166933065     0.0273796357
    2      C       1.9082663106    -0.2092483022    -0.0112117446
    3      C       2.4930691441     0.9175171316    -0.6164122910
    4      C       3.8764687911     1.0920690237    -0.6066201552
    5      C       4.7048309576     0.1381395653    -0.0072642008
    6      C       4.1378380813    -0.9956549302     0.5801989634
    7      C       2.7534671527    -1.1677024720     0.5742941458
    8      C      -0.4777269760     0.5555908281    -0.0467335464
    9      C      -1.9234879836     0.2847324466    -0.0228245439
   10      C      -2.4686363941    -0.7992825667    -0.7285269843
   11      C      -3.8395106579    -1.0609979581    -0.6789422101
   12      C      -4.6856950794    -0.2363466264     0.0664689714
   13      C      -4.1539782288     0.8534535795     0.7633400045
   14      C      -2.7843365836     1.1133968854     0.7168980790
   15      H       0.1182100382    -1.4475502668     0.1596644463
   16      H       1.8615739529     1.6486399158    -1.1187462165
   17      H       4.3122053917     1.9683782145    -1.0837832088
   18      H       5.7848978939     0.2728969888    -0.0083890235
   19      H       4.7746903824    -1.7473694798     1.0434888872
   20      H       2.3147794586    -2.0512401844     1.0381567954
   21      H      -0.1689656601     1.6015241207    -0.1092944580
   22      H      -1.8100886117    -1.4280218040    -1.3267598105
   23      H      -4.2491419799    -1.9030706268    -1.2344773809
   24      H      -5.7549214384    -0.4373648716     0.0992038867
   25      H      -4.8078119807     1.4997602310     1.3465969028
   26      H      -2.3709204910     1.9597152202     1.2651914977
 ----------------------------------------------------------------
 Molecular Point Group                 C1    NOp =  1
 Largest Abelian Subgroup              C1    NOp =  1
 Nuclear Repulsion Energy =         732.20813690 hartrees
 There are       48 alpha and       48 beta electrons
 Applying Cartesian multipole field
    Component          Value
    ---------          -----
     (2,0,0)        1.00000E-12
     (0,2,0)        2.00000E-11
     (0,0,2)       -3.00000E-11
 Nucleus-field energy     =     0.0000000062 hartrees
 Requested basis set is 6-31G(d)
 There are 80 shells and 234 basis functions
 Requested basis set is rimp2-cc-pVDZ
 There are 324 shells and 1020 basis functions
 A cutoff of  1.0D-11 yielded   2207 shell pairs
 There are     19934 function pairs
 Smallest overlap matrix eigenvalue = 4.68E-04
 Guess MOs from SCF MO coefficient file

 -----------------------------------------------------------------------
  General SCF calculation program by
  Eric Jon Sundstrom, Paul Horn, Yuezhi Mao, Dmitri Zuev, Alec White,
  David Stuck, Shaama M.S., Shane Yost, Joonho Lee, David Small,
  Daniel Levine, Susi Lehtola, Hugh Burton, Evgeny Epifanovsky,
  Bang C. Huynh
 -----------------------------------------------------------------------
 Hartree-Fock
 using 6 threads for integral computing
 -------------------------------------------------------
 OpenMP Integral computing Module                
 Release: version 1.0, May 2013, Q-Chem Inc. Pittsburgh 
 -------------------------------------------------------
 A restricted SCF calculation will be
 performed using DIIS
 SCF converges when DIIS error is below 1.0e-08
 ---------------------------------------
  Cycle       Energy         DIIS error
 ---------------------------------------
    1    -537.1188956107      1.01e-03  
    2    -537.1321835558      3.21e-04  
    3    -537.1342933471      6.81e-05  
    4    -537.1344189605      1.73e-05  
    5    -537.1344245835      7.59e-06  
    6    -537.1344253971      2.10e-06  
    7    -537.1344254661      6.94e-07  
    8    -537.1344254759      2.76e-07  
    9    -537.1344254776      1.11e-07  
   10    -537.1344254779      5.53e-08  
   11    -537.1344254781      2.51e-08  
   12    -537.1344254783      9.53e-09  Convergence criterion met
 ---------------------------------------
 SCF time:   CPU 26.35s  wall 5.00s 
 SCF   energy in the final basis set =     -537.1344254783
 Total energy in the final basis set =     -537.1344254783


 --------------------------------------------------------------
  Generalized many-body perturbation theory program
  by Joonho Lee, Fazle Rob, Xintian Feng, Evgeny Epifanovsky

 No regularization used 
 (reg. param. = 0.0000e+00)
         1      0.00054891     MINRES Iteration
         2      0.00010440     MINRES Iteration
         3      0.00002637     MINRES Iteration
         4      0.00000937     MINRES Iteration
         5      0.00000427     MINRES Iteration
         6      0.00000204     MINRES Iteration
         7      0.00000084     MINRES Done

 In RI-MP2 calculation: 
 # of frozen core orbitals: 14

 Components of the RIMP2 correlation energy:
        aaaa    correlation energy =        -0.2380202067 a.u.
        abab    correlation energy =        -1.2932342255 a.u.
        bbbb    correlation energy =        -0.2380202067 a.u.
        non-Brillouin singles      =        -0.0000000000 a.u.
        total same-spin energy     =        -0.4760404135 a.u.
        total opposite-spin energy =        -1.2932342255 a.u.

 Total  RIMP2   correlation energy =        -1.7692746389 a.u.
        RIMP2         total energy =      -538.9037001173 a.u.

 RI-MP2 Gradient Time:  CPU 203.65 s  wall 35.37 s

 --------------------------------------------------------------

                    Orbital Energies (a.u.)
 --------------------------------------------------------------

 Alpha MOs
 -- Occupied --
-11.2441 -11.2429 -11.2391 -11.2375 -11.2366 -11.2363 -11.2360 -11.2356
-11.2349 -11.2346 -11.2343 -11.2341 -11.2337 -11.2331  -1.1554  -1.1467
 -1.0774  -1.0257  -1.0098  -1.0088  -0.9639  -0.8588  -0.8238  -0.8224
 -0.8000  -0.7518  -0.6960  -0.6915  -0.6475  -0.6372  -0.6244  -0.6087
 -0.5935  -0.5815  -0.5800  -0.5756  -0.5337  -0.5053  -0.5048  -0.4941
 -0.4886  -0.4828  -0.4791  -0.4064  -0.3379  -0.3322  -0.3313  -0.2808
 -- Virtual --
  0.0915   0.1432   0.1442   0.1587   0.2245   0.2409   0.2433   0.2562
  0.2894   0.2933   0.3063   0.3107   0.3206   0.3308   0.3336   0.3527
  0.3627   0.3734   0.3819   0.4285   0.4540   0.4721   0.4760   0.4810
  0.5019   0.5081   0.5184   0.5418   0.5647   0.6055   0.6723   0.6872
  0.7223   0.7388   0.7543   0.7561   0.7680   0.7684   0.7716   0.7790
  0.7924   0.7995   0.8197   0.8255   0.8289   0.8351   0.8386   0.8411
  0.8418   0.8432   0.8460   0.8555   0.8598   0.8854   0.8932   0.9081
  0.9255   0.9365   0.9536   0.9735   1.0116   1.0375   1.0837   1.0947
  1.1026   1.1066   1.1108   1.1134   1.1153   1.1174   1.1326   1.1484
  1.1566   1.1662   1.1721   1.1872   1.2010   1.2050   1.2102   1.2267
  1.2415   1.2696   1.2772   1.2837   1.3096   1.3246   1.3647   1.3736
  1.4006   1.4153   1.4338   1.4348   1.4499   1.4816   1.5064   1.5406
  1.5619   1.6080   1.6899   1.6928   1.7053   1.7078   1.7233   1.7251
  1.7678   1.7697   1.7733   1.7741   1.7905   1.7960   1.7969   1.8657
  1.9101   2.0370   2.0916   2.1069   2.1139   2.1206   2.1286   2.1553
  2.1640   2.1701   2.2316   2.2456   2.2743   2.3014   2.3044   2.3134
  2.3555   2.3764   2.3789   2.4274   2.4478   2.4548   2.4625   2.4649
  2.4729   2.4940   2.5097   2.5434   2.5534   2.5983   2.6140   2.6372
  2.6389   2.6445   2.6453   2.7353   2.7757   2.8131   2.8582   2.9129
  2.9227   2.9506   2.9699   2.9834   3.0035   3.0414   3.0728   3.0801
  3.0977   3.1017   3.1101   3.1139   3.1585   3.2601   3.2791   3.3272
  3.5002   3.5356   3.7866   3.8034   4.5108   4.5166   4.5320   4.5410
  4.5419   4.5537   4.6047   4.6889   4.7535   4.7557   4.8093   4.8818
  5.1227   5.1526
 --------------------------------------------------------------

          Ground-State Mulliken Net Atomic Charges

     Atom                 Charge (a.u.)
  ----------------------------------------
      1 C                    -0.181545
      2 C                     0.068977
      3 C                    -0.193627
      4 C                    -0.175223
      5 C                    -0.169842
      6 C                    -0.174603
      7 C                    -0.199670
      8 C                    -0.193231
      9 C                     0.051298
     10 C                    -0.190622
     11 C                    -0.175642
     12 C                    -0.169484
     13 C                    -0.175176
     14 C                    -0.192448
     15 H                     0.168506
     16 H                     0.173918
     17 H                     0.172985
     18 H                     0.172823
     19 H                     0.173389
     20 H                     0.172479
     21 H                     0.169923
     22 H                     0.175803
     23 H                     0.172759
     24 H                     0.172425
     25 H                     0.172895
     26 H                     0.172932
  ----------------------------------------
  Sum of atomic charges =     0.000000

 -----------------------------------------------------------------
                    Cartesian Multipole Moments
 -----------------------------------------------------------------
    Charge (ESU x 10^10)
                 0.0000
    Dipole Moment (Debye)
         X       0.0503      Y       0.0011      Z       0.0193
       Tot       0.0539
    Quadrupole Moments (Debye-Ang)
        XX     -71.9128     XY       0.6127     YY     -76.3844
        XZ      -0.4640     YZ       0.0582     ZZ     -84.7290
    Octopole Moments (Debye-Ang^2)
       XXX       2.3479    XXY      -2.7607    XYY       2.5395
       YYY      -0.6171    XXZ       7.7737    XYZ     -22.4204
       YYZ       0.2148    XZZ      -2.8663    YZZ      -0.0093
       ZZZ      -0.5306
    Hexadecapole Moments (Debye-Ang^3)
      XXXX   -4702.8861   XXXY      43.7815   XXYY    -915.6664
      XYYY      15.0355   YYYY    -474.7119   XXXZ       0.7838
      XXYZ       1.9899   XYYZ       6.7632   YYYZ      -6.2173
      XXZZ    -951.7671   XYZZ       2.6966   YYZZ    -111.1382
      XZZZ      18.2077   YZZZ      -1.0381   ZZZZ    -256.7829
 -----------------------------------------------------------------
 DrvMan is completing analytic gradient of the MP2 energy
 MP2 relaxed dipole moment
            1
    1   0.0197834
    2   0.0004264
    3   0.0076089
	Magnitude:	 0.021 au	 0.054 Debye
 MP2 energy read as -538.903700
 Full Analytical Gradient of MP2 Energy (in au.)
             1             2             3             4             5
    1   -0.00144199    0.00058537   -0.00013634    0.00007834   -0.00014141
    2    0.00072441    0.00044310   -0.00038322   -0.00012229    0.00000840
    3    0.00108112    0.00004512    0.00016145    0.00008655    0.00004969
             6             7             8             9            10
    1    0.00005977   -0.00039435    0.00169375   -0.00181016    0.00110814
    2    0.00014027    0.00016568   -0.00043285   -0.00133459    0.00173348
    3   -0.00011767   -0.00017074    0.00036736   -0.00027877   -0.00044204
            11            12            13            14            15
    1   -0.00090640    0.00023442    0.00002391    0.00053226   -0.00046236
    2    0.00043323   -0.00028622   -0.00001289   -0.00055497   -0.00106542
    3    0.00006548   -0.00024643   -0.00010693    0.00113398   -0.00028844
            16            17            18            19            20
    1   -0.00038100    0.00031737    0.00081069    0.00046851   -0.00030409
    2    0.00063678    0.00065253    0.00008273   -0.00055842   -0.00066988
    3   -0.00032310   -0.00037829   -0.00003745    0.00038139    0.00035973
            21            22            23            24            25
    1    0.00022364    0.00098105   -0.00026639   -0.00077137   -0.00042192
    2    0.00103264   -0.00082369   -0.00068077   -0.00022030    0.00051714
    3   -0.00187472   -0.00004601   -0.00039111    0.00001108    0.00049602
            26
    1    0.00032056
    2    0.00057514
    3    0.00046273
 Gradient time:  CPU 0.11 s  wall 0.09 s
 Geometry Optimization Parameters
   NAtoms,    NIC,     NZ,  NCons,   NDum,   NFix, NCnnct, MaxDiis
       26     181       0       0       0       0       0       0

 Cartesian Hessian Update
 Hessian updated using BFGS update


** GEOMETRY OPTIMIZATION IN DELOCALIZED INTERNAL COORDINATES **
   Searching for a Minimum

   Optimization Cycle:   3

                       Coordinates (Angstroms)
     ATOM                X               Y               Z
      1  C         0.4561677072   -0.4166933065    0.0273796357
      2  C         1.9082663106   -0.2092483022   -0.0112117446
      3  C         2.4930691441    0.9175171316   -0.6164122910
      4  C         3.8764687911    1.0920690237   -0.6066201552
      5  C         4.7048309576    0.1381395653   -0.0072642008
      6  C         4.1378380813   -0.9956549302    0.5801989634
      7  C         2.7534671527   -1.1677024720    0.5742941458
      8  C        -0.4777269760    0.5555908281   -0.0467335464
      9  C        -1.9234879836    0.2847324466   -0.0228245439
     10  C        -2.4686363941   -0.7992825667   -0.7285269843
     11  C        -3.8395106579   -1.0609979581   -0.6789422101
     12  C        -4.6856950794   -0.2363466264    0.0664689714
     13  C        -4.1539782288    0.8534535795    0.7633400045
     14  C        -2.7843365836    1.1133968854    0.7168980790
     15  H         0.1182100382   -1.4475502668    0.1596644463
     16  H         1.8615739529    1.6486399158   -1.1187462165
     17  H         4.3122053917    1.9683782145   -1.0837832088
     18  H         5.7848978939    0.2728969888   -0.0083890235
     19  H         4.7746903824   -1.7473694798    1.0434888872
     20  H         2.3147794586   -2.0512401844    1.0381567954
     21  H        -0.1689656601    1.6015241207   -0.1092944580
     22  H        -1.8100886117   -1.4280218040   -1.3267598105
     23  H        -4.2491419799   -1.9030706268   -1.2344773809
     24  H        -5.7549214384   -0.4373648716    0.0992038867
     25  H        -4.8078119807    1.4997602310    1.3465969028
     26  H        -2.3709204910    1.9597152202    1.2651914977
   Point Group: c1    Number of degrees of freedom:    72


   Energy is   -538.903700117

 Hessian updated using BFGS update

 72 Hessian modes will be used to form the next step
  Hessian Eigenvalues:
     0.005115    0.012962    0.019809    0.019898    0.022238    0.022395
     0.022970    0.023220    0.023541    0.023614    0.023693    0.023895
     0.024014    0.024059    0.024132    0.024140    0.024207    0.024210
     0.024270    0.024281    0.024295    0.024337    0.030630    0.159380
     0.159966    0.159985    0.159992    0.159994    0.159995    0.159996
     0.159997    0.159997    0.160000    0.160082    0.162385    0.219952
     0.219992    0.219993    0.220000    0.220707    0.231343    0.235124
     0.238825    0.249217    0.275086    0.353895    0.355769    0.366402
     0.366656    0.367621    0.367937    0.368631    0.368672    0.368715
     0.368942    0.369071    0.369538    0.370002    0.391267    0.426932
     0.428339    0.429794    0.430222    0.466693    0.467312    0.471879
     0.478026    0.479470    0.481038    0.482628    0.507344    0.574877

 Minimum search - taking simple RFO step
 Searching for Lamda that Minimizes Along All modes
 Value Taken    Lamda =  -0.00093490
 Calculated Step too Large.  Step scaled by  0.794233
 Step Taken.  Stepsize is  0.300000

                             Maximum     Tolerance    Cnvgd?
         Gradient           0.002512      0.000300      NO
         Displacement       0.185087      0.001200      NO
         Energy change     -0.000856      0.000001      NO


 New Cartesian Coordinates Obtained by Inverse Iteration

 Displacement from previous Coordinates is:  0.890122
 ----------------------------------------------------------------
             Standard Nuclear Orientation (Angstroms)
    I     Atom           X                Y                Z
 ----------------------------------------------------------------
    1      C       0.4581995448    -0.4261979835    -0.0008061052
    2      C       1.9075548974    -0.2170449984    -0.0294961910
    3      C       2.4878197274     0.9430765277    -0.5726376260
    4      C       3.8695404939     1.1231682404    -0.5512775379
    5      C       4.7012047886     0.1419273364    -0.0042022151
    6      C       4.1394776039    -1.0248140707     0.5190490277
    7      C       2.7567247243    -1.2024201773     0.5027538857
    8      C      -0.4759557175     0.5518009491    -0.0095635207
    9      C      -1.9199519449     0.2854871004    -0.0034776157
   10      C      -2.4529688197    -0.8440670416    -0.6479534449
   11      C      -3.8224527781    -1.1062241422    -0.6040275317
   12      C      -4.6831858891    -0.2339882838     0.0659707267
   13      C      -4.1670228391     0.9040665665     0.6918297817
   14      C      -2.7978956882     1.1634288743     0.6538584802
   15      H       0.1178837810    -1.4607671196     0.0744903509
   16      H       1.8526572001     1.6946524142    -1.0374586935
   17      H       4.3019036498     2.0253037458    -0.9794622041
   18      H       5.7799964869     0.2816044672     0.0037375042
   19      H       4.7795401478    -1.7974883909     0.9400179069
   20      H       2.3212171546    -2.1109281316     0.9173305566
   21      H      -0.1620232317     1.5962387934     0.0140779370
   22      H      -1.7862552441    -1.5028304045    -1.2010552473
   23      H      -4.2217316619    -1.9817476811    -1.1121316897
   24      H      -5.7524700434    -0.4326977569     0.0905393136
   25      H      -4.8337224885     1.5884058264     1.2126062178
   26      H      -2.3968406572     2.0473260960     1.1481843753
 ----------------------------------------------------------------
 Molecular Point Group                 C1    NOp =  1
 Largest Abelian Subgroup              C1    NOp =  1
 Nuclear Repulsion Energy =         732.69009534 hartrees
 There are       48 alpha and       48 beta electrons
 Applying Cartesian multipole field
    Component          Value
    ---------          -----
     (2,0,0)        1.00000E-12
     (0,2,0)        2.00000E-11
     (0,0,2)       -3.00000E-11
 Nucleus-field energy     =     0.0000000072 hartrees
 Requested basis set is 6-31G(d)
 There are 80 shells and 234 basis functions
 Requested basis set is rimp2-cc-pVDZ
 There are 324 shells and 1020 basis functions
 A cutoff of  1.0D-11 yielded   2209 shell pairs
 There are     19936 function pairs
 Smallest overlap matrix eigenvalue = 4.65E-04
 Guess MOs from SCF MO coefficient file

 -----------------------------------------------------------------------
  General SCF calculation program by
  Eric Jon Sundstrom, Paul Horn, Yuezhi Mao, Dmitri Zuev, Alec White,
  David Stuck, Shaama M.S., Shane Yost, Joonho Lee, David Small,
  Daniel Levine, Susi Lehtola, Hugh Burton, Evgeny Epifanovsky,
  Bang C. Huynh
 -----------------------------------------------------------------------
 Hartree-Fock
 using 6 threads for integral computing
 -------------------------------------------------------
 OpenMP Integral computing Module                
 Release: version 1.0, May 2013, Q-Chem Inc. Pittsburgh 
 -------------------------------------------------------
 A restricted SCF calculation will be
 performed using DIIS
 SCF converges when DIIS error is below 1.0e-08
 ---------------------------------------
  Cycle       Energy         DIIS error
 ---------------------------------------
    1    -537.1175071261      1.05e-03  
    2    -537.1323245045      3.41e-04  
    3    -537.1347840837      7.31e-05  
    4    -537.1349303371      1.78e-05  
    5    -537.1349362045      8.48e-06  
    6    -537.1349371923      2.12e-06  
    7    -537.1349372775      7.81e-07  
    8    -537.1349372909      3.18e-07  
    9    -537.1349372938      1.44e-07  
   10    -537.1349372944      7.02e-08  
   11    -537.1349372946      2.82e-08  
   12    -537.1349372950      1.14e-08  
   13    -537.1349372948      3.97e-09  Convergence criterion met
 ---------------------------------------
 SCF time:   CPU 27.88s  wall 5.00s 
 SCF   energy in the final basis set =     -537.1349372948
 Total energy in the final basis set =     -537.1349372948


 --------------------------------------------------------------
  Generalized many-body perturbation theory program
  by Joonho Lee, Fazle Rob, Xintian Feng, Evgeny Epifanovsky

 No regularization used 
 (reg. param. = 0.0000e+00)
         1      0.00054919     MINRES Iteration
         2      0.00010480     MINRES Iteration
         3      0.00002678     MINRES Iteration
         4      0.00000963     MINRES Iteration
         5      0.00000435     MINRES Iteration
         6      0.00000207     MINRES Iteration
         7      0.00000087     MINRES Done

 In RI-MP2 calculation: 
 # of frozen core orbitals: 14

 Components of the RIMP2 correlation energy:
        aaaa    correlation energy =        -0.2381038838 a.u.
        abab    correlation energy =        -1.2930330593 a.u.
        bbbb    correlation energy =        -0.2381038838 a.u.
        non-Brillouin singles      =        -0.0000000000 a.u.
        total same-spin energy     =        -0.4762077676 a.u.
        total opposite-spin energy =        -1.2930330593 a.u.

 Total  RIMP2   correlation energy =        -1.7692408269 a.u.
        RIMP2         total energy =      -538.9041781217 a.u.

 RI-MP2 Gradient Time:  CPU 204.01 s  wall 35.43 s

 --------------------------------------------------------------

                    Orbital Energies (a.u.)
 --------------------------------------------------------------

 Alpha MOs
 -- Occupied --
-11.2439 -11.2432 -11.2391 -11.2376 -11.2364 -11.2360 -11.2359 -11.2356
-11.2347 -11.2344 -11.2341 -11.2341 -11.2337 -11.2332  -1.1559  -1.1472
 -1.0779  -1.0262  -1.0101  -1.0094  -0.9637  -0.8598  -0.8243  -0.8231
 -0.8002  -0.7519  -0.6968  -0.6920  -0.6478  -0.6378  -0.6255  -0.6083
 -0.5930  -0.5820  -0.5800  -0.5752  -0.5329  -0.5067  -0.5054  -0.4947
 -0.4888  -0.4834  -0.4797  -0.4090  -0.3396  -0.3324  -0.3317  -0.2775
 -- Virtual --
  0.0880   0.1436   0.1442   0.1605   0.2269   0.2414   0.2436   0.2543
  0.2887   0.2934   0.3061   0.3115   0.3209   0.3310   0.3330   0.3580
  0.3644   0.3744   0.3819   0.4291   0.4551   0.4722   0.4739   0.4804
  0.5077   0.5091   0.5218   0.5419   0.5653   0.6073   0.6748   0.6912
  0.7248   0.7395   0.7541   0.7558   0.7687   0.7701   0.7736   0.7792
  0.7919   0.7989   0.8212   0.8256   0.8287   0.8356   0.8380   0.8413
  0.8419   0.8435   0.8458   0.8561   0.8589   0.8843   0.8918   0.9134
  0.9243   0.9341   0.9594   0.9737   1.0114   1.0373   1.0857   1.0917
  1.1036   1.1061   1.1112   1.1137   1.1153   1.1182   1.1353   1.1591
  1.1644   1.1715   1.1724   1.1923   1.2036   1.2073   1.2096   1.2302
  1.2450   1.2709   1.2829   1.2903   1.3021   1.3255   1.3674   1.3857
  1.4074   1.4153   1.4304   1.4345   1.4504   1.4842   1.5075   1.5393
  1.5617   1.6149   1.6880   1.6918   1.7043   1.7086   1.7229   1.7262
  1.7683   1.7726   1.7742   1.7752   1.7897   1.7964   1.7971   1.8676
  1.8942   2.0350   2.0910   2.1088   2.1151   2.1226   2.1283   2.1575
  2.1642   2.1705   2.2325   2.2466   2.2767   2.3012   2.3055   2.3114
  2.3537   2.3771   2.3793   2.4283   2.4474   2.4547   2.4630   2.4697
  2.4740   2.4953   2.5098   2.5441   2.5549   2.6016   2.6154   2.6387
  2.6401   2.6422   2.6462   2.7479   2.7711   2.8129   2.8576   2.9147
  2.9245   2.9520   2.9650   2.9856   3.0013   3.0407   3.0735   3.0789
  3.0997   3.1053   3.1121   3.1147   3.1614   3.2658   3.2810   3.3268
  3.5131   3.5352   3.7888   3.8066   4.5113   4.5169   4.5316   4.5412
  4.5423   4.5476   4.6021   4.6831   4.7538   4.7551   4.8088   4.8823
  5.1220   5.1547
 --------------------------------------------------------------

          Ground-State Mulliken Net Atomic Charges

     Atom                 Charge (a.u.)
  ----------------------------------------
      1 C                    -0.187682
      2 C                     0.069702
      3 C                    -0.193567
      4 C                    -0.175259
      5 C                    -0.169830
      6 C                    -0.174584
      7 C                    -0.199281
      8 C                    -0.188467
      9 C                     0.059561
     10 C                    -0.193099
     11 C                    -0.175525
     12 C                    -0.169609
     13 C                    -0.175152
     14 C                    -0.195338
     15 H                     0.167820
     16 H                     0.174145
     17 H                     0.172978
     18 H                     0.172758
     19 H                     0.173417
     20 H                     0.172225
     21 H                     0.168752
     22 H                     0.175447
     23 H                     0.172908
     24 H                     0.172371
     25 H                     0.173009
     26 H                     0.172300
  ----------------------------------------
  Sum of atomic charges =     0.000000

 -----------------------------------------------------------------
                    Cartesian Multipole Moments
 -----------------------------------------------------------------
    Charge (ESU x 10^10)
                 0.0000
    Dipole Moment (Debye)
         X       0.0372      Y       0.0026      Z       0.0189
       Tot       0.0418
    Quadrupole Moments (Debye-Ang)
        XX     -71.7993     XY       0.4937     YY     -75.6228
        XZ      -0.3543     YZ       0.2911     ZZ     -85.5499
    Octopole Moments (Debye-Ang^2)
       XXX       1.5943    XXY      -1.9670    XYY       2.1021
       YYY      -0.4819    XXZ       7.4264    XYZ     -21.0409
       YYZ       0.2610    XZZ      -2.3544    YZZ       0.0652
       ZZZ      -0.6069
    Hexadecapole Moments (Debye-Ang^3)
      XXXX   -4694.4121   XXXY      42.0003   XXYY    -908.9698
      XYYY      18.2693   YYYY    -497.3364   XXXZ       8.2258
      XXYZ       2.1599   XYYZ       7.6202   YYYZ      -6.9204
      XXZZ    -956.7112   XYZZ       4.4151   YYZZ    -113.7120
      XZZZ      23.1024   YZZZ      -3.9856   ZZZZ    -227.8138
 -----------------------------------------------------------------
 DrvMan is completing analytic gradient of the MP2 energy
 MP2 relaxed dipole moment
            1
    1   0.0146285
    2   0.0010088
    3   0.0074187
	Magnitude:	 0.016 au	 0.042 Debye
 MP2 energy read as -538.904178
 Full Analytical Gradient of MP2 Energy (in au.)
             1             2             3             4             5
    1    0.00035313   -0.00008774    0.00015455   -0.00013516   -0.00036995
    2   -0.00078219   -0.00003500   -0.00020262   -0.00025369   -0.00006548
    3    0.00011554   -0.00006652    0.00016691    0.00018632    0.00001811
             6             7             8             9            10
    1   -0.00009808    0.00010628    0.00074633   -0.00161725    0.00098422
    2    0.00022343    0.00023145    0.00171390   -0.00059196    0.00035980
    3   -0.00009878   -0.00016199   -0.00015515    0.00055130   -0.00049257
            11            12            13            14            15
    1   -0.00099788    0.00079591    0.00041997   -0.00021044   -0.00086359
    2    0.00029868   -0.00051783    0.00001322   -0.00024647   -0.00032015
    3    0.00049593   -0.00027991   -0.00021683    0.00037220   -0.00003236
            16            17            18            19            20
    1   -0.00021213    0.00015980    0.00036969    0.00024212   -0.00019813
    2    0.00025536    0.00030280    0.00004069   -0.00025128   -0.00028694
    3   -0.00017910   -0.00015781   -0.00001260    0.00014705    0.00013651
            21            22            23            24            25
    1    0.00029485    0.00084298   -0.00019305   -0.00038381   -0.00027123
    2    0.00014828   -0.00012678   -0.00026409    0.00000208    0.00013903
    3   -0.00060934    0.00016993   -0.00021612   -0.00007699    0.00028023
            26
    1    0.00016860
    2    0.00021575
    3    0.00011605
 Gradient time:  CPU 0.10 s  wall 0.08 s
 Geometry Optimization Parameters
   NAtoms,    NIC,     NZ,  NCons,   NDum,   NFix, NCnnct, MaxDiis
       26     181       0       0       0       0       0       0

 Cartesian Hessian Update
 Hessian updated using BFGS update


** GEOMETRY OPTIMIZATION IN DELOCALIZED INTERNAL COORDINATES **
   Searching for a Minimum

   Optimization Cycle:   4

                       Coordinates (Angstroms)
     ATOM                X               Y               Z
      1  C         0.4581995448   -0.4261979835   -0.0008061052
      2  C         1.9075548974   -0.2170449984   -0.0294961910
      3  C         2.4878197274    0.9430765277   -0.5726376260
      4  C         3.8695404939    1.1231682404   -0.5512775379
      5  C         4.7012047886    0.1419273364   -0.0042022151
      6  C         4.1394776039   -1.0248140707    0.5190490277
      7  C         2.7567247243   -1.2024201773    0.5027538857
      8  C        -0.4759557175    0.5518009491   -0.0095635207
      9  C        -1.9199519449    0.2854871004   -0.0034776157
     10  C        -2.4529688197   -0.8440670416   -0.6479534449
     11  C        -3.8224527781   -1.1062241422   -0.6040275317
     12  C        -4.6831858891   -0.2339882838    0.0659707267
     13  C        -4.1670228391    0.9040665665    0.6918297817
     14  C        -2.7978956882    1.1634288743    0.6538584802
     15  H         0.1178837810   -1.4607671196    0.0744903509
     16  H         1.8526572001    1.6946524142   -1.0374586935
     17  H         4.3019036498    2.0253037458   -0.9794622041
     18  H         5.7799964869    0.2816044672    0.0037375042
     19  H         4.7795401478   -1.7974883909    0.9400179069
     20  H         2.3212171546   -2.1109281316    0.9173305566
     21  H        -0.1620232317    1.5962387934    0.0140779370
     22  H        -1.7862552441   -1.5028304045   -1.2010552473
     23  H        -4.2217316619   -1.9817476811   -1.1121316897
     24  H        -5.7524700434   -0.4326977569    0.0905393136
     25  H        -4.8337224885    1.5884058264    1.2126062178
     26  H        -2.3968406572    2.0473260960    1.1481843753
   Point Group: c1    Number of degrees of freedom:    72


   Energy is   -538.904178122

 Hessian updated using BFGS update

 72 Hessian modes will be used to form the next step
  Hessian Eigenvalues:
     0.005237    0.012969    0.019824    0.019912    0.022238    0.022371
     0.022985    0.023220    0.023533    0.023612    0.023693    0.023863
     0.024021    0.024058    0.024138    0.024139    0.024207    0.024209
     0.024275    0.024289    0.024295    0.024344    0.030596    0.159525
     0.159966    0.159986    0.159993    0.159994    0.159996    0.159996
     0.159997    0.159999    0.160031    0.160099    0.163065    0.219987
     0.219993    0.219999    0.220001    0.220808    0.232655    0.235008
     0.238392    0.250534    0.286360    0.352878    0.356358    0.366383
     0.366856    0.367626    0.367992    0.368631    0.368672    0.368715
     0.368940    0.369071    0.369538    0.369941    0.385436    0.426546
     0.427938    0.429762    0.430046    0.466448    0.467189    0.471714
     0.477967    0.479479    0.480147    0.481956    0.511840    0.576681

 Minimum search - taking simple RFO step
 Searching for Lamda that Minimizes Along All modes
 Value Taken    Lamda =  -0.00024858
 Step Taken.  Stepsize is  0.157521

                             Maximum     Tolerance    Cnvgd?
         Gradient           0.003659      0.000300      NO
         Displacement       0.100409      0.001200      NO
         Energy change     -0.000478      0.000001      NO


 New Cartesian Coordinates Obtained by Inverse Iteration

 Displacement from previous Coordinates is:  0.516523
 ----------------------------------------------------------------
             Standard Nuclear Orientation (Angstroms)
    I     Atom           X                Y                Z
 ----------------------------------------------------------------
    1      C       0.4673241951    -0.4545865291    -0.0172559272
    2      C       1.9138191755    -0.2286088618    -0.0367881729
    3      C       2.4813456680     0.9527499647    -0.5468769321
    4      C       3.8604156814     1.1489699372    -0.5176818245
    5      C       4.7027757578     0.1632112815     0.0034591358
    6      C       4.1543529312    -1.0243268462     0.4922687222
    7      C       2.7742443312    -1.2181488263     0.4686381759
    8      C      -0.4749503035     0.5160173534     0.0067090589
    9      C      -1.9192769836     0.2622708457     0.0020079949
   10      C      -2.4678815561    -0.8784750876    -0.6113416668
   11      C      -3.8404281827    -1.1171807983    -0.5691862174
   12      C      -4.6935526267    -0.2103241676     0.0642278334
   13      C      -4.1643228648     0.9402333351     0.6532559879
   14      C      -2.7910656962     1.1757423393     0.6176690798
   15      H       0.1410094418    -1.4943792307     0.0249770840
   16      H       1.8381239344     1.7075898860    -0.9933540466
   17      H       4.2824737505     2.0671380936    -0.9197795788
   18      H       5.7791982646     0.3155195999     0.0175988669
   19      H       4.8028145485    -1.8004505669     0.8919510442
   20      H       2.3495268215    -2.1427921659     0.8563031930
   21      H      -0.1616119859     1.5576885359     0.0793676867
   22      H      -1.8138519037    -1.5630829434    -1.1460263536
   23      H      -4.2492240991    -2.0017429188    -1.0521599709
   24      H      -5.7652901535    -0.3920234720     0.0873673689
   25      H      -4.8235767477     1.6540549115     1.1416366960
   26      H      -2.3811482009     2.0702070865     1.0839092038
 ----------------------------------------------------------------
 Molecular Point Group                 C1    NOp =  1
 Largest Abelian Subgroup              C1    NOp =  1
 Nuclear Repulsion Energy =         732.50981796 hartrees
 There are       48 alpha and       48 beta electrons
 Applying Cartesian multipole field
    Component          Value
    ---------          -----
     (2,0,0)        1.00000E-12
     (0,2,0)        2.00000E-11
     (0,0,2)       -3.00000E-11
 Nucleus-field energy     =     0.0000000077 hartrees
 Requested basis set is 6-31G(d)
 There are 80 shells and 234 basis functions
 Requested basis set is rimp2-cc-pVDZ
 There are 324 shells and 1020 basis functions
 A cutoff of  1.0D-11 yielded   2210 shell pairs
 There are     19931 function pairs
 Smallest overlap matrix eigenvalue = 4.64E-04
 Guess MOs from SCF MO coefficient file

 -----------------------------------------------------------------------
  General SCF calculation program by
  Eric Jon Sundstrom, Paul Horn, Yuezhi Mao, Dmitri Zuev, Alec White,
  David Stuck, Shaama M.S., Shane Yost, Joonho Lee, David Small,
  Daniel Levine, Susi Lehtola, Hugh Burton, Evgeny Epifanovsky,
  Bang C. Huynh
 -----------------------------------------------------------------------
 Hartree-Fock
 using 6 threads for integral computing
 -------------------------------------------------------
 OpenMP Integral computing Module                
 Release: version 1.0, May 2013, Q-Chem Inc. Pittsburgh 
 -------------------------------------------------------
 A restricted SCF calculation will be
 performed using DIIS
 SCF converges when DIIS error is below 1.0e-08
 ---------------------------------------
  Cycle       Energy         DIIS error
 ---------------------------------------
    1    -537.1301730149      5.90e-04  
    2    -537.1346363639      1.86e-04  
    3    -537.1353330097      3.97e-05  
    4    -537.1353738194      1.33e-05  
    5    -537.1353764540      5.19e-06  
    6    -537.1353769080      1.37e-06  
    7    -537.1353769433      5.27e-07  
    8    -537.1353769493      2.14e-07  
    9    -537.1353769509      8.91e-08  
   10    -537.1353769511      4.48e-08  
   11    -537.1353769513      1.89e-08  
   12    -537.1353769514      6.71e-09  Convergence criterion met
 ---------------------------------------
 SCF time:   CPU 25.34s  wall 5.00s 
 SCF   energy in the final basis set =     -537.1353769514
 Total energy in the final basis set =     -537.1353769514


 --------------------------------------------------------------
  Generalized many-body perturbation theory program
  by Joonho Lee, Fazle Rob, Xintian Feng, Evgeny Epifanovsky

 No regularization used 
 (reg. param. = 0.0000e+00)
         1      0.00054936     MINRES Iteration
         2      0.00010491     MINRES Iteration
         3      0.00002688     MINRES Iteration
         4      0.00000964     MINRES Iteration
         5      0.00000430     MINRES Iteration
         6      0.00000204     MINRES Iteration
         7      0.00000087     MINRES Done

 In RI-MP2 calculation: 
 # of frozen core orbitals: 14

 Components of the RIMP2 correlation energy:
        aaaa    correlation energy =        -0.2380904440 a.u.
        abab    correlation energy =        -1.2927777427 a.u.
        bbbb    correlation energy =        -0.2380904440 a.u.
        non-Brillouin singles      =        -0.0000000000 a.u.
        total same-spin energy     =        -0.4761808880 a.u.
        total opposite-spin energy =        -1.2927777427 a.u.

 Total  RIMP2   correlation energy =        -1.7689586306 a.u.
        RIMP2         total energy =      -538.9043355820 a.u.

 RI-MP2 Gradient Time:  CPU 203.09 s  wall 35.31 s

 --------------------------------------------------------------

                    Orbital Energies (a.u.)
 --------------------------------------------------------------

 Alpha MOs
 -- Occupied --
-11.2438 -11.2436 -11.2392 -11.2377 -11.2362 -11.2359 -11.2358 -11.2356
-11.2345 -11.2342 -11.2341 -11.2338 -11.2338 -11.2334  -1.1561  -1.1475
 -1.0780  -1.0266  -1.0102  -1.0099  -0.9639  -0.8605  -0.8245  -0.8234
 -0.8006  -0.7521  -0.6968  -0.6925  -0.6482  -0.6382  -0.6260  -0.6081
 -0.5929  -0.5822  -0.5799  -0.5753  -0.5323  -0.5074  -0.5057  -0.4951
 -0.4889  -0.4839  -0.4798  -0.4102  -0.3404  -0.3324  -0.3320  -0.2762
 -- Virtual --
  0.0864   0.1439   0.1443   0.1610   0.2287   0.2417   0.2436   0.2533
  0.2881   0.2933   0.3062   0.3115   0.3209   0.3311   0.3329   0.3612
  0.3649   0.3750   0.3823   0.4291   0.4557   0.4722   0.4729   0.4802
  0.5098   0.5099   0.5241   0.5419   0.5657   0.6093   0.6759   0.6921
  0.7262   0.7401   0.7540   0.7555   0.7691   0.7706   0.7747   0.7793
  0.7914   0.7983   0.8217   0.8259   0.8285   0.8355   0.8376   0.8415
  0.8420   0.8437   0.8456   0.8558   0.8579   0.8840   0.8910   0.9148
  0.9228   0.9335   0.9627   0.9735   1.0114   1.0372   1.0870   1.0908
  1.1041   1.1058   1.1115   1.1135   1.1152   1.1180   1.1366   1.1608
  1.1660   1.1720   1.1761   1.1978   1.2044   1.2077   1.2098   1.2323
  1.2479   1.2710   1.2841   1.2931   1.2999   1.3268   1.3703   1.3908
  1.4129   1.4165   1.4304   1.4353   1.4514   1.4844   1.5061   1.5385
  1.5600   1.6188   1.6876   1.6916   1.7038   1.7078   1.7233   1.7261
  1.7687   1.7741   1.7749   1.7752   1.7890   1.7965   1.7974   1.8701
  1.8893   2.0341   2.0899   2.1101   2.1160   2.1212   2.1285   2.1577
  2.1652   2.1698   2.2329   2.2471   2.2771   2.3013   2.3064   2.3107
  2.3531   2.3773   2.3789   2.4284   2.4476   2.4536   2.4629   2.4727
  2.4744   2.4938   2.5111   2.5449   2.5557   2.6020   2.6164   2.6398
  2.6405   2.6412   2.6453   2.7542   2.7687   2.8138   2.8572   2.9152
  2.9253   2.9508   2.9629   2.9875   3.0004   3.0405   3.0740   3.0794
  3.1006   3.1073   3.1139   3.1157   3.1617   3.2684   3.2837   3.3270
  3.5211   3.5345   3.7897   3.8085   4.5111   4.5171   4.5309   4.5413
  4.5424   4.5456   4.6020   4.6810   4.7541   4.7547   4.8093   4.8826
  5.1219   5.1562
 --------------------------------------------------------------

          Ground-State Mulliken Net Atomic Charges

[...]
        non-Brillouin singles      =        -0.0000000000 a.u.
        total same-spin energy     =        -0.4761392636 a.u.
        total opposite-spin energy =        -1.2927390033 a.u.

 Total  RIMP2   correlation energy =        -1.7688782668 a.u.
        RIMP2         total energy =      -538.9043797447 a.u.

 RI-MP2 Gradient Time:  CPU 203.41 s  wall 35.36 s

 --------------------------------------------------------------

                    Orbital Energies (a.u.)
 --------------------------------------------------------------

 Alpha MOs
 -- Occupied --
-11.2438 -11.2438 -11.2392 -11.2377 -11.2362 -11.2361 -11.2358 -11.2358
-11.2345 -11.2345 -11.2341 -11.2341 -11.2338 -11.2338  -1.1560  -1.1474
 -1.0781  -1.0267  -1.0101  -1.0100  -0.9641  -0.8608  -0.8244  -0.8234
 -0.8009  -0.7521  -0.6965  -0.6927  -0.6483  -0.6385  -0.6262  -0.6079
 -0.5930  -0.5822  -0.5796  -0.5754  -0.5319  -0.5077  -0.5056  -0.4954
 -0.4890  -0.4839  -0.4798  -0.4109  -0.3407  -0.3323  -0.3321  -0.2758
 -- Virtual --
  0.0859   0.1439   0.1443   0.1611   0.2295   0.2415   0.2437   0.2523
  0.2876   0.2927   0.3060   0.3114   0.3207   0.3309   0.3327   0.3638
  0.3656   0.3749   0.3831   0.4292   0.4560   0.4721   0.4721   0.4799
  0.5103   0.5111   0.5254   0.5421   0.5660   0.6122   0.6764   0.6924
  0.7265   0.7401   0.7539   0.7555   0.7695   0.7710   0.7751   0.7793
  0.7912   0.7980   0.8217   0.8262   0.8284   0.8353   0.8375   0.8414
  0.8419   0.8436   0.8454   0.8555   0.8571   0.8843   0.8905   0.9147
  0.9220   0.9331   0.9651   0.9735   1.0115   1.0369   1.0865   1.0896
  1.1038   1.1054   1.1113   1.1130   1.1148   1.1178   1.1394   1.1611
  1.1671   1.1729   1.1760   1.2004   1.2050   1.2064   1.2107   1.2335
  1.2492   1.2709   1.2846   1.2931   1.3005   1.3277   1.3722   1.3918
  1.4164   1.4181   1.4333   1.4357   1.4534   1.4842   1.5044   1.5372
  1.5597   1.6216   1.6893   1.6918   1.7033   1.7080   1.7246   1.7250
  1.7681   1.7731   1.7745   1.7749   1.7853   1.7965   1.7968   1.8721
  1.8890   2.0337   2.0890   2.1110   2.1159   2.1203   2.1284   2.1575
  2.1659   2.1687   2.2325   2.2470   2.2770   2.3008   2.3064   2.3100
  2.3529   2.3767   2.3782   2.4281   2.4472   2.4529   2.4625   2.4733
  2.4740   2.4923   2.5130   2.5450   2.5556   2.6009   2.6168   2.6394
  2.6398   2.6410   2.6449   2.7572   2.7680   2.8148   2.8576   2.9149
  2.9251   2.9488   2.9624   2.9881   2.9996   3.0407   3.0737   3.0797
  3.1007   3.1077   3.1135   3.1154   3.1610   3.2686   3.2867   3.3273
  3.5263   3.5346   3.7892   3.8088   4.5104   4.5167   4.5302   4.5410
  4.5422   4.5449   4.6025   4.6796   4.7541   4.7542   4.8095   4.8828
  5.1217   5.1573
 --------------------------------------------------------------

          Ground-State Mulliken Net Atomic Charges

     Atom                 Charge (a.u.)
  ----------------------------------------
      1 C                    -0.187961
      2 C                     0.068461
      3 C                    -0.193457
      4 C                    -0.175403
      5 C                    -0.169765
      6 C                    -0.174631
      7 C                    -0.199184
      8 C                    -0.188101
      9 C                     0.068221
     10 C                    -0.193428
     11 C                    -0.175406
     12 C                    -0.169763
     13 C                    -0.174634
     14 C                    -0.199086
     15 H                     0.166817
     16 H                     0.174437
     17 H                     0.172923
     18 H                     0.172726
     19 H                     0.173301
     20 H                     0.171855
     21 H                     0.166831
     22 H                     0.174460
     23 H                     0.172918
     24 H                     0.172721
     25 H                     0.173292
     26 H                     0.171853
  ----------------------------------------
  Sum of atomic charges =     0.000000

 -----------------------------------------------------------------
                    Cartesian Multipole Moments
 -----------------------------------------------------------------
    Charge (ESU x 10^10)
                -0.0000
    Dipole Moment (Debye)
         X       0.0010      Y      -0.0004      Z       0.0118
       Tot       0.0118
    Quadrupole Moments (Debye-Ang)
        XX     -71.6428     XY       0.3810     YY     -75.0446
        XZ      -0.0894     YZ       0.5154     ZZ     -86.1753
    Octopole Moments (Debye-Ang^2)
       XXX       0.1715    XXY      -0.6556    XYY       1.8591
       YYY      -0.1024    XXZ       6.9885    XYZ     -19.7444
       YYZ       0.1382    XZZ      -1.9664    YZZ       0.2818
       ZZZ      -0.6126
    Hexadecapole Moments (Debye-Ang^3)
      XXXX   -4711.6025   XXXY      37.0681   XXYY    -907.8333
      XYYY      17.2225   YYYY    -512.6123   XXXZ      14.0501
      XXYZ       2.5424   XYYZ       5.8665   YYYZ      -7.8822
      XXZZ    -965.8854   XYZZ       4.4792   YYZZ    -115.7933
      XZZZ      19.3044   YZZZ      -6.7247   ZZZZ    -205.5258
 -----------------------------------------------------------------
 DrvMan is completing analytic gradient of the MP2 energy
 MP2 relaxed dipole moment
            1
    1   0.0003765
    2  -0.0001418
    3   0.0046293
	Magnitude:	 0.005 au	 0.012 Debye
 MP2 energy read as -538.904380
 Full Analytical Gradient of MP2 Energy (in au.)
             1             2             3             4             5
    1    0.00001404   -0.00003053    0.00001403   -0.00002131    0.00001203
    2    0.00005339   -0.00001174    0.00000635   -0.00000141   -0.00000940
    3    0.00001655   -0.00001409    0.00002317   -0.00001517    0.00000923
             6             7             8             9            10
    1    0.00000454   -0.00000912   -0.00001241    0.00004012   -0.00002537
    2    0.00000098    0.00000098   -0.00005593    0.00000354    0.00000592
    3   -0.00000371   -0.00001017   -0.00000564   -0.00000603    0.00000746
            11            12            13            14            15
    1    0.00002201   -0.00001755   -0.00000427    0.00000144    0.00000742
    2   -0.00000503    0.00002315   -0.00001784    0.00000458   -0.00001852
    3   -0.00000259   -0.00001169    0.00002184   -0.00001043    0.00000628
            16            17            18            19            20
    1   -0.00000125   -0.00000086    0.00000438    0.00000087    0.00000020
    2    0.00001054    0.00000644    0.00000046   -0.00000566   -0.00000700
    3   -0.00000320    0.00000174    0.00000023    0.00000197    0.00000411
            21            22            23            24            25
    1   -0.00000223    0.00000610   -0.00000257   -0.00000114    0.00000164
    2    0.00002213   -0.00000970   -0.00000457   -0.00001031    0.00001414
    3   -0.00000922   -0.00000562   -0.00000332    0.00000820   -0.00000886
            26
    1   -0.00000020
    2    0.00000450
    3    0.00000895
 Gradient time:  CPU 0.09 s  wall 0.08 s
 Geometry Optimization Parameters
   NAtoms,    NIC,     NZ,  NCons,   NDum,   NFix, NCnnct, MaxDiis
       26     181       0       0       0       0       0       0

 Cartesian Hessian Update
 Hessian updated using BFGS update


** GEOMETRY OPTIMIZATION IN DELOCALIZED INTERNAL COORDINATES **
   Searching for a Minimum

   Optimization Cycle:   8

                       Coordinates (Angstroms)
     ATOM                X               Y               Z
      1  C         0.4736817624   -0.4795680503   -0.0331631896
      2  C         1.9184029824   -0.2369963568   -0.0428466855
      3  C         2.4746920632    0.9592521297   -0.5298171947
      4  C         3.8519509694    1.1689185919   -0.4939015869
      5  C         4.7034937358    0.1822407352    0.0109349076
      6  C         4.1659228567   -1.0196891264    0.4769221874
      7  C         2.7877054374   -1.2270943996    0.4464288134
      8  C        -0.4740571682    0.4831127034    0.0164112298
      9  C        -1.9188021492    0.2405668039    0.0050558706
     10  C        -2.4817737128   -0.9055058001   -0.5841275070
     11  C        -3.8583019602   -1.1200094296   -0.5479669731
     12  C        -4.7026661822   -0.1863778907    0.0593708496
     13  C        -4.1586880133    0.9673342180    0.6284434529
     14  C        -2.7811439035    1.1790847617    0.5974499291
     15  H         0.1620946998   -1.5250242875   -0.0259608686
     16  H         1.8247669174    1.7162683905   -0.9630223692
     17  H         4.2650556010    2.0988193374   -0.8780949068
     18  H         5.7783346771    0.3451625848    0.0303736158
     19  H         4.8211148766   -1.7965479845    0.8642192669
     20  H         2.3721676778   -2.1632149213    0.8163224630
     21  H        -0.1621765258    1.5240695126    0.1125589196
     22  H        -1.8378341857   -1.6173449251   -1.0957856292
     23  H        -4.2767469898   -2.0103063684   -1.0119229496
     24  H        -5.7770297505   -0.3523519743    0.0792544181
     25  H        -4.8084078827    1.7035090388    1.0960929691
     26  H        -2.3605126360    2.0769634625    1.0476674087
   Point Group: c1    Number of degrees of freedom:    72


   Energy is   -538.904379745

 Hessian updated using BFGS update

 72 Hessian modes will be used to form the next step
  Hessian Eigenvalues:
     0.004025    0.007740    0.019845    0.019968    0.022204    0.022366
     0.023114    0.023395    0.023527    0.023651    0.023810    0.023912
     0.024007    0.024100    0.024140    0.024170    0.024209    0.024222
     0.024269    0.024294    0.024299    0.025467    0.032391    0.156480
     0.159615    0.159908    0.159987    0.159990    0.159995    0.159997
     0.159999    0.160002    0.160111    0.160689    0.160887    0.210156
     0.218933    0.219999    0.220001    0.220310    0.222973    0.235120
     0.237027    0.246189    0.254051    0.355232    0.360812    0.366405
     0.367550    0.367683    0.367958    0.368633    0.368684    0.368715
     0.368955    0.369071    0.369895    0.371898    0.395710    0.428038
     0.429171    0.430600    0.433869    0.467035    0.467784    0.471695
     0.476275    0.478911    0.480155    0.482065    0.512527    0.582862

 Minimum search - taking simple RFO step
 Searching for Lamda that Minimizes Along All modes
 Value Taken    Lamda =  -0.00000022
 Step Taken.  Stepsize is  0.004917

                             Maximum     Tolerance    Cnvgd?
         Gradient           0.000028      0.000300     YES
         Displacement       0.002769      0.001200      NO
         Energy change     -0.000000      0.000001     YES

 Final energy is   -538.90437974473014     


 ******************************
 **  OPTIMIZATION CONVERGED  **
 ******************************

                       Coordinates (Angstroms)
     ATOM                X               Y               Z
      1  C         0.4736817624   -0.4795680503   -0.0331631896
      2  C         1.9184029824   -0.2369963568   -0.0428466855
      3  C         2.4746920632    0.9592521297   -0.5298171947
      4  C         3.8519509694    1.1689185919   -0.4939015869
      5  C         4.7034937358    0.1822407352    0.0109349076
      6  C         4.1659228567   -1.0196891264    0.4769221874
      7  C         2.7877054374   -1.2270943996    0.4464288134
      8  C        -0.4740571682    0.4831127034    0.0164112298
      9  C        -1.9188021492    0.2405668039    0.0050558706
     10  C        -2.4817737128   -0.9055058001   -0.5841275070
     11  C        -3.8583019602   -1.1200094296   -0.5479669731
     12  C        -4.7026661822   -0.1863778907    0.0593708496
     13  C        -4.1586880133    0.9673342180    0.6284434529
     14  C        -2.7811439035    1.1790847617    0.5974499291
     15  H         0.1620946998   -1.5250242875   -0.0259608686
     16  H         1.8247669174    1.7162683905   -0.9630223692
     17  H         4.2650556010    2.0988193374   -0.8780949068
     18  H         5.7783346771    0.3451625848    0.0303736158
     19  H         4.8211148766   -1.7965479845    0.8642192669
     20  H         2.3721676778   -2.1632149213    0.8163224630
     21  H        -0.1621765258    1.5240695126    0.1125589196
     22  H        -1.8378341857   -1.6173449251   -1.0957856292
     23  H        -4.2767469898   -2.0103063684   -1.0119229496
     24  H        -5.7770297505   -0.3523519743    0.0792544181
     25  H        -4.8084078827    1.7035090388    1.0960929691
     26  H        -2.3605126360    2.0769634625    1.0476674087

Z-matrix Print:
$molecule
0 1
C 
C  1 1.405482
H  2 1.088950 1 119.199326
C  2 1.394068 1 120.945729 3 -179.262601 0
H  4 1.087559 2 119.806458 1 179.692334 0
C  4 1.396713 2 120.083578 1 -0.368118 0
H  6 1.087290 4 120.230521 2 -179.795128 0
C  6 1.397669 4 119.573027 2 -0.439289 0
H  8 1.087649 6 119.981761 4 -178.690685 0
C  8 1.393610 6 120.343068 4 0.158259 0
H  10 1.087735 8 119.750298 6 -177.428145 0
C  1 1.465007 2 119.422755 3 0.560244 0
H  12 1.090919 1 116.141799 2 -23.812754 0
C  12 1.351821 1 124.973769 2 153.648022 0
H  14 1.090925 12 118.814237 1 -3.602367 0
C  14 1.464976 12 125.009783 1 178.996561 0
C  16 1.405479 14 119.407178 12 153.911908 0
H  17 1.088951 16 119.197202 14 0.576579 0
C  17 1.394070 16 120.949640 14 -178.716308 0
H  19 1.087559 17 119.808867 16 179.682417 0
C  19 1.396697 17 120.082274 16 -0.339587 0
H  21 1.087292 19 120.229282 17 -179.785057 0
C  21 1.397683 19 119.571545 17 -0.465103 0
H  23 1.087647 21 119.982519 19 -178.697047 0
C  23 1.393590 21 120.345523 19 0.183737 0
H  25 1.087724 23 119.739899 21 -177.436254 0
$end


 --------------------------------------------------------------

                    Orbital Energies (a.u.)
 --------------------------------------------------------------

 Alpha MOs
 -- Occupied --
-11.2438 -11.2438 -11.2392 -11.2377 -11.2362 -11.2361 -11.2358 -11.2358
-11.2345 -11.2345 -11.2341 -11.2341 -11.2338 -11.2338  -1.1560  -1.1474
 -1.0781  -1.0267  -1.0101  -1.0100  -0.9641  -0.8608  -0.8244  -0.8234
 -0.8009  -0.7521  -0.6965  -0.6927  -0.6483  -0.6385  -0.6262  -0.6079
 -0.5930  -0.5822  -0.5796  -0.5754  -0.5319  -0.5077  -0.5056  -0.4954
 -0.4890  -0.4839  -0.4798  -0.4109  -0.3407  -0.3323  -0.3321  -0.2758
 -- Virtual --
  0.0859   0.1439   0.1443   0.1611   0.2295   0.2415   0.2437   0.2523
  0.2876   0.2927   0.3060   0.3114   0.3207   0.3309   0.3327   0.3638
  0.3656   0.3749   0.3831   0.4292   0.4560   0.4721   0.4721   0.4799
  0.5103   0.5111   0.5254   0.5421   0.5660   0.6122   0.6764   0.6924
  0.7265   0.7401   0.7539   0.7555   0.7695   0.7710   0.7751   0.7793
  0.7912   0.7980   0.8217   0.8262   0.8284   0.8353   0.8375   0.8414
  0.8419   0.8436   0.8454   0.8555   0.8571   0.8843   0.8905   0.9147
  0.9220   0.9331   0.9651   0.9735   1.0115   1.0369   1.0865   1.0896
  1.1038   1.1054   1.1113   1.1130   1.1148   1.1178   1.1394   1.1611
  1.1671   1.1729   1.1760   1.2004   1.2050   1.2064   1.2107   1.2335
  1.2492   1.2709   1.2846   1.2931   1.3005   1.3277   1.3722   1.3918
  1.4164   1.4181   1.4333   1.4357   1.4534   1.4842   1.5044   1.5372
  1.5597   1.6216   1.6893   1.6918   1.7033   1.7080   1.7246   1.7250
  1.7681   1.7731   1.7745   1.7749   1.7853   1.7965   1.7968   1.8721
  1.8890   2.0337   2.0890   2.1110   2.1159   2.1203   2.1284   2.1575
  2.1659   2.1687   2.2325   2.2470   2.2770   2.3008   2.3064   2.3100
  2.3529   2.3767   2.3782   2.4281   2.4472   2.4529   2.4625   2.4733
  2.4740   2.4923   2.5130   2.5450   2.5556   2.6009   2.6168   2.6394
  2.6398   2.6410   2.6449   2.7572   2.7680   2.8148   2.8576   2.9149
  2.9251   2.9488   2.9624   2.9881   2.9996   3.0407   3.0737   3.0797
  3.1007   3.1077   3.1135   3.1154   3.1610   3.2686   3.2867   3.3273
  3.5263   3.5346   3.7892   3.8088   4.5104   4.5167   4.5302   4.5410
  4.5422   4.5449   4.6025   4.6796   4.7541   4.7542   4.8095   4.8828
  5.1217   5.1573
 --------------------------------------------------------------

          Ground-State Mulliken Net Atomic Charges

     Atom                 Charge (a.u.)
  ----------------------------------------
      1 C                    -0.187961
      2 C                     0.068461
      3 C                    -0.193457
      4 C                    -0.175403
      5 C                    -0.169765
      6 C                    -0.174631
      7 C                    -0.199184
      8 C                    -0.188101
      9 C                     0.068221
     10 C                    -0.193428
     11 C                    -0.175406
     12 C                    -0.169763
     13 C                    -0.174634
     14 C                    -0.199086
     15 H                     0.166817
     16 H                     0.174437
     17 H                     0.172923
     18 H                     0.172726
     19 H                     0.173301
     20 H                     0.171855
     21 H                     0.166831
     22 H                     0.174460
     23 H                     0.172918
     24 H                     0.172721
     25 H                     0.173292
     26 H                     0.171853
  ----------------------------------------
  Sum of atomic charges =     0.000000

 -----------------------------------------------------------------
                    Cartesian Multipole Moments
 -----------------------------------------------------------------
    Charge (ESU x 10^10)
                -0.0000
    Dipole Moment (Debye)
         X       0.0010      Y      -0.0004      Z       0.0118
       Tot       0.0118
    Quadrupole Moments (Debye-Ang)
        XX     -71.6428     XY       0.3810     YY     -75.0446
        XZ      -0.0894     YZ       0.5154     ZZ     -86.1753
    Octopole Moments (Debye-Ang^2)
       XXX       0.1715    XXY      -0.6556    XYY       1.8591
       YYY      -0.1024    XXZ       6.9885    XYZ     -19.7444
       YYZ       0.1382    XZZ      -1.9664    YZZ       0.2818
       ZZZ      -0.6126
    Hexadecapole Moments (Debye-Ang^3)
      XXXX   -4711.6025   XXXY      37.0681   XXYY    -907.8333
      XYYY      17.2225   YYYY    -512.6123   XXXZ      14.0501
      XXYZ       2.5424   XYYZ       5.8665   YYYZ      -7.8822
      XXZZ    -965.8854   XYZZ       4.4792   YYZZ    -115.7933
      XZZZ      19.3044   YZZZ      -6.7247   ZZZZ    -205.5258
 -----------------------------------------------------------------
Archival summary:
1\1\node20\OPT\ProcedureUnspecified\6-31G*\1412\debashre\FriJun2111:43:452024FriJun2111:43:452024\0\\#,OPT,ProcedureUnspecified,6-31G*,\\0,1\C\C,1,1.40548\H,2,1.08895,1,119.199\C,2,1.39407,1,120.946,3,-179.263,0\H,4,1.08756,2,119.806,1,179.692,0\C,4,1.39671,2,120.084,1,-0.368118,0\H,6,1.08729,4,120.231,2,-179.795,0\C,6,1.39767,4,119.573,2,-0.439289,0\H,8,1.08765,6,119.982,4,-178.691,0\C,8,1.39361,6,120.343,4,0.158259,0\H,10,1.08773,8,119.75,6,-177.428,0\C,1,1.46501,2,119.423,3,0.560244,0\H,12,1.09092,1,116.142,2,-23.8128,0\C,12,1.35182,1,124.974,2,153.648,0\H,14,1.09092,12,118.814,1,-3.60237,0\C,14,1.46498,12,125.01,1,178.997,0\C,16,1.40548,14,119.407,12,153.912,0\H,17,1.08895,16,119.197,14,0.576579,0\C,17,1.39407,16,120.95,14,-178.716,0\H,19,1.08756,17,119.809,16,179.682,0\C,19,1.3967,17,120.082,16,-0.339587,0\H,21,1.08729,19,120.229,17,-179.785,0\C,21,1.39768,19,119.572,17,-0.465103,0\H,23,1.08765,21,119.983,19,-178.697,0\C,23,1.39359,21,120.346,19,0.183737,0\H,25,1.08772,23,119.74,21,-177.436,0\\HF=-537.135501\\@

 Total job time:  335.97s(wall), 1832.02s(cpu) 
 Fri Jun 21 11:43:45 2024

        *************************************************************
        *                                                           *
        *  Thank you very much for using Q-Chem.  Have a nice day.  *
        *                                                           *
        *************************************************************


