
 Primary working directories    : /scratch/debashree/manadip/
 Secondary working directories  : /scratch/debashree/manadip/
 Wavefunction directory         : /home/debashree/wfu/
 Main file repository           : /scratch/debashree/manadip/

 SHA1      : f6387f0c468d0184d0b38d85973bdb066f718752
 NAME      : 2015.1.44
 ARCHNAME  : linux/x86_64
 FC        : /opt/may/bin/gfortran
 BLASLIB   : -Wl,-_start-group /opt/intel/mkl/lib/intel64/libmkl_gf_ilp64.a /opt/intel/mkl/lib/intel64/libmkl_gnu_thread.a /opt/intel/mkl/lib/intel64/libmkl_core.a -Wl,-_end-group
 id        : iacsdirector

 Nodes             nprocs
 node32.iacs.res.in    4

 Using customized tuning parameters: mindgm=1; mindgv=20; mindgc=4; mindgr=1; noblas=0; minvec=7
 default implementation of scratch files=sf  

 memory,3,G
 print,orbital,basis
 symmetry,nosym
 geometry=trans-SB-input.xyz
 Including file /home/debashree/Manadip/trans-SB-input.xyz
 basis=6-31g
 
 
 {hf
 wf,96,1,0
 print,20
 }
 
 {casscf
 occ,49
 closed,47
 wf,96,1,0;state,2
 print,natorb
 cpmcscf,grad,[state=2.1],[spin=0],[ms2=0],[accu=1.d-8],[record=5101.1]
 }
 
 {optg}

 Variables initialized (889), CPU time= 0.01 sec
 Commands  initialized (702), CPU time= 0.01 sec, 572 directives.
 Default parameters read. Elapsed time= 1.65 sec

 Checking input...
 Passed
1


                                         ***  PROGRAM SYSTEM MOLPRO  ***
                                       Copyright, TTI GmbH Stuttgart, 2015
                                    Version 2015.1 linked Jun  9 2019 06:55:40


 **********************************************************************************************************************************
 LABEL *                                                                                 
  64 bit mpp version                                                                     DATE: 19-Jun-24          TIME: 23:40:04  
 **********************************************************************************************************************************

 SHA1:             f6387f0c468d0184d0b38d85973bdb066f718752
 **********************************************************************************************************************************


 Variable memory set to 3000000000 words,  buffer space   230000 words

 ZSYMEL=NOSYM


Geometry recognized as XYZ

 SETTING BASIS          =    6-31G


 Recomputing integrals since basis changed


 Using spherical harmonics

 Library entry C      S 6-31G                selected for orbital group  1
 Library entry C      P 6-31G                selected for orbital group  1
 Library entry H      S 6-31G                selected for orbital group  2


 PROGRAM * SEWARD (Integral evaluation for generally contracted gaussian basis sets)     Author: Roland Lindh, 1990

 Geometry written to block  1 of record 700


 Point group  C1  



 ATOMIC COORDINATES

 NR  ATOM    CHARGE       X              Y              Z

   1  C       6.00   -2.687859512    1.796455668    0.727258075
   2  C       6.00   -5.067149614    3.132226154    0.190134605
   3  C       6.00   -5.155788408    5.520184184   -0.929601747
   4  C       6.00   -7.445151565    6.688754064   -1.419884501
   5  C       6.00   -9.699737336    5.508338643   -0.786998290
   6  C       6.00   -9.642505147    3.149448456    0.350051752
   7  C       6.00   -7.350797048    1.980988558    0.836981338
   8  C       6.00   -0.478922362    2.140442515   -0.447635112
   9  C       6.00    1.904510586    0.816669900    0.100792133
  10  C       6.00    2.991897095    0.747026104    2.504283882
  11  C       6.00    5.226159126   -0.546836682    2.929824032
  12  C       6.00    6.437258804   -1.786142242    0.961468653
  13  C       6.00    5.395995616   -1.711701603   -1.440778541
  14  C       6.00    3.158745247   -0.419275803   -1.863427656
  15  H       1.00   -2.823406355    0.382921252    2.179566837
  16  H       1.00   -3.436299811    6.486760766   -1.391056502
  17  H       1.00   -7.469382805    8.525381757   -2.278426064
  18  H       1.00  -11.470496905    6.420273530   -1.162448075
  19  H       1.00  -11.372845591    2.222389505    0.856857477
  20  H       1.00   -7.326955640    0.152269123    1.715807467
  21  H       1.00   -0.376053987    3.458948651   -1.989262724
  22  H       1.00    2.113407771    1.730517077    4.042092509
  23  H       1.00    6.030380928   -0.573016362    4.790851208
  24  H       1.00    8.171404495   -2.781195580    1.294318965
  25  H       1.00    6.320492740   -2.653958430   -2.979552100
  26  H       1.00    2.366131088   -0.375227043   -3.730762511

 Bond lengths in Bohr (Angstrom)

  1- 2  2.780972096   1- 8  2.525490900   1-15  2.031170410   2- 3  2.638941054   2- 7  2.637954568
       ( 1.471627058)       ( 1.336432230)       ( 1.074849092)       ( 1.396467467)       ( 1.395945441)

  3- 4  2.616699525   3-16  2.025796588   4- 5  2.622419211   4-17  2.027531024   5- 6  2.619259673
       ( 1.384697757)       ( 1.072005388)       ( 1.387724484)       ( 1.072923212)       ( 1.386052529)

  5-18  2.026863890   6- 7  2.618076577   6-19  2.027404349   7-20  2.029068394   8- 9  2.780988852
       ( 1.072570180)       ( 1.385426461)       ( 1.072856179)       ( 1.073736754)       ( 1.471635925)

  8-21  2.031171098   9-10  2.638945294   9-14  2.637958633  10-11  2.616694890  10-22  2.025796968
       ( 1.074849457)       ( 1.396469710)       ( 1.395947592)       ( 1.384695304)       ( 1.072005590)

 11-12  2.622415605  11-23  2.027530574  12-13  2.619267458  12-24  2.026865006  13-14  2.618069123
       ( 1.387722576)       ( 1.072922974)       ( 1.386056648)       ( 1.072570771)       ( 1.385422516)

 13-25  2.027403987  14-26  2.029068002
       ( 1.072855987)       ( 1.073736546)

 Bond angles

  1- 2- 3  123.04738936   1- 2- 7  118.92530959   1- 8- 9  126.37318750   1- 8-21  119.06510475

  2- 1- 8  126.37346538   2- 1-15  114.53649442   2- 3- 4  120.86369779   2- 3-16  119.99331353

  2- 7- 6  121.15757560   2- 7-20  119.29812532   3- 2- 7  118.02612853   3- 4- 5  120.39447016

  3- 4-17  119.62548184   4- 3-16  119.13417898   4- 5- 6  119.43007413   4- 5-18  120.25682802

  5- 4-17  119.97752074   5- 6- 7  120.11951417   5- 6-19  120.11111094   6- 5-18  120.31157374

  6- 7-20  119.54299862   7- 6-19  119.76937022   8- 1-15  119.06426001   8- 9-10  123.04661873

  8- 9-14  118.92533479   9- 8-21  114.53601141   9-10-11  120.86359233   9-10-22  119.99226771

  9-14-13  121.15684307   9-14-26  119.29782476  10- 9-14  118.02684510  10-11-12  120.39376889

 10-11-23  119.62588099  11-10-22  119.13546873  11-12-13  119.43087690  11-12-24  120.25661082

 12-11-23  119.97774898  12-13-14  120.11943025  12-13-25  120.10683831  13-12-24  120.31094709

 13-14-26  119.54414100  14-13-25  119.77372223


 BASIS DATA

   Nr Sym  Nuc  Type         Exponents   Contraction coefficients

    1.1 A     1  1s        3047.524900     0.001835
                            457.369520     0.014037
                            103.948680     0.068843
                             29.210155     0.232184
                              9.286663     0.467941
                              3.163927     0.362312
    2.1 A     1  1s           7.868272    -0.119332
                              1.881288    -0.160854
                              0.544249     1.143456
    3.1 A     1  1s           0.168714     1.000000
    4.1 A     1  2px          7.868272     0.068999
                              1.881288     0.316424
                              0.544249     0.744308
    5.1 A     1  2py          7.868272     0.068999
                              1.881288     0.316424
                              0.544249     0.744308
    6.1 A     1  2pz          7.868272     0.068999
                              1.881288     0.316424
                              0.544249     0.744308
    7.1 A     1  2px          0.168714     1.000000
    8.1 A     1  2py          0.168714     1.000000
    9.1 A     1  2pz          0.168714     1.000000
   10.1 A     2  1s        3047.524900     0.001835
                            457.369520     0.014037
                            103.948680     0.068843
                             29.210155     0.232184
                              9.286663     0.467941
                              3.163927     0.362312
   11.1 A     2  1s           7.868272    -0.119332
                              1.881288    -0.160854
                              0.544249     1.143456
   12.1 A     2  1s           0.168714     1.000000
   13.1 A     2  2px          7.868272     0.068999
                              1.881288     0.316424
                              0.544249     0.744308
   14.1 A     2  2py          7.868272     0.068999
                              1.881288     0.316424
                              0.544249     0.744308
   15.1 A     2  2pz          7.868272     0.068999
                              1.881288     0.316424
                              0.544249     0.744308
   16.1 A     2  2px          0.168714     1.000000
   17.1 A     2  2py          0.168714     1.000000
   18.1 A     2  2pz          0.168714     1.000000
   19.1 A     3  1s        3047.524900     0.001835
                            457.369520     0.014037
                            103.948680     0.068843
                             29.210155     0.232184
                              9.286663     0.467941
                              3.163927     0.362312
   20.1 A     3  1s           7.868272    -0.119332
                              1.881288    -0.160854
                              0.544249     1.143456
   21.1 A     3  1s           0.168714     1.000000
   22.1 A     3  2px          7.868272     0.068999
                              1.881288     0.316424
                              0.544249     0.744308
   23.1 A     3  2py          7.868272     0.068999
                              1.881288     0.316424
                              0.544249     0.744308
   24.1 A     3  2pz          7.868272     0.068999
                              1.881288     0.316424
                              0.544249     0.744308
   25.1 A     3  2px          0.168714     1.000000
   26.1 A     3  2py          0.168714     1.000000
   27.1 A     3  2pz          0.168714     1.000000
   28.1 A     4  1s        3047.524900     0.001835
                            457.369520     0.014037
                            103.948680     0.068843
                             29.210155     0.232184
                              9.286663     0.467941
                              3.163927     0.362312
   29.1 A     4  1s           7.868272    -0.119332
                              1.881288    -0.160854
                              0.544249     1.143456
   30.1 A     4  1s           0.168714     1.000000
   31.1 A     4  2px          7.868272     0.068999
                              1.881288     0.316424
                              0.544249     0.744308
   32.1 A     4  2py          7.868272     0.068999
                              1.881288     0.316424
                              0.544249     0.744308
   33.1 A     4  2pz          7.868272     0.068999
                              1.881288     0.316424
                              0.544249     0.744308
   34.1 A     4  2px          0.168714     1.000000
   35.1 A     4  2py          0.168714     1.000000
   36.1 A     4  2pz          0.168714     1.000000
   37.1 A     5  1s        3047.524900     0.001835
                            457.369520     0.014037
                            103.948680     0.068843
                             29.210155     0.232184
                              9.286663     0.467941
                              3.163927     0.362312
   38.1 A     5  1s           7.868272    -0.119332
                              1.881288    -0.160854
                              0.544249     1.143456
   39.1 A     5  1s           0.168714     1.000000
   40.1 A     5  2px          7.868272     0.068999
                              1.881288     0.316424
                              0.544249     0.744308
   41.1 A     5  2py          7.868272     0.068999
                              1.881288     0.316424
                              0.544249     0.744308
   42.1 A     5  2pz          7.868272     0.068999
                              1.881288     0.316424
                              0.544249     0.744308
   43.1 A     5  2px          0.168714     1.000000
   44.1 A     5  2py          0.168714     1.000000
   45.1 A     5  2pz          0.168714     1.000000
   46.1 A     6  1s        3047.524900     0.001835
                            457.369520     0.014037
                            103.948680     0.068843
                             29.210155     0.232184
                              9.286663     0.467941
                              3.163927     0.362312
   47.1 A     6  1s           7.868272    -0.119332
                              1.881288    -0.160854
                              0.544249     1.143456
   48.1 A     6  1s           0.168714     1.000000
   49.1 A     6  2px          7.868272     0.068999
                              1.881288     0.316424
                              0.544249     0.744308
   50.1 A     6  2py          7.868272     0.068999
                              1.881288     0.316424
                              0.544249     0.744308
   51.1 A     6  2pz          7.868272     0.068999
                              1.881288     0.316424
                              0.544249     0.744308
   52.1 A     6  2px          0.168714     1.000000
   53.1 A     6  2py          0.168714     1.000000
   54.1 A     6  2pz          0.168714     1.000000
   55.1 A     7  1s        3047.524900     0.001835
                            457.369520     0.014037
                            103.948680     0.068843
                             29.210155     0.232184
                              9.286663     0.467941
                              3.163927     0.362312
   56.1 A     7  1s           7.868272    -0.119332
                              1.881288    -0.160854
                              0.544249     1.143456
   57.1 A     7  1s           0.168714     1.000000
   58.1 A     7  2px          7.868272     0.068999
                              1.881288     0.316424
                              0.544249     0.744308
   59.1 A     7  2py          7.868272     0.068999
                              1.881288     0.316424
                              0.544249     0.744308
   60.1 A     7  2pz          7.868272     0.068999
                              1.881288     0.316424
                              0.544249     0.744308
   61.1 A     7  2px          0.168714     1.000000
   62.1 A     7  2py          0.168714     1.000000
   63.1 A     7  2pz          0.168714     1.000000
   64.1 A     8  1s        3047.524900     0.001835
                            457.369520     0.014037
                            103.948680     0.068843
                             29.210155     0.232184
                              9.286663     0.467941
                              3.163927     0.362312
   65.1 A     8  1s           7.868272    -0.119332
                              1.881288    -0.160854
                              0.544249     1.143456
   66.1 A     8  1s           0.168714     1.000000
   67.1 A     8  2px          7.868272     0.068999
                              1.881288     0.316424
                              0.544249     0.744308
   68.1 A     8  2py          7.868272     0.068999
                              1.881288     0.316424
                              0.544249     0.744308
   69.1 A     8  2pz          7.868272     0.068999
                              1.881288     0.316424
                              0.544249     0.744308
   70.1 A     8  2px          0.168714     1.000000
   71.1 A     8  2py          0.168714     1.000000
   72.1 A     8  2pz          0.168714     1.000000
   73.1 A     9  1s        3047.524900     0.001835
                            457.369520     0.014037
                            103.948680     0.068843
                             29.210155     0.232184
                              9.286663     0.467941
                              3.163927     0.362312
   74.1 A     9  1s           7.868272    -0.119332
                              1.881288    -0.160854
                              0.544249     1.143456
   75.1 A     9  1s           0.168714     1.000000
   76.1 A     9  2px          7.868272     0.068999
                              1.881288     0.316424
                              0.544249     0.744308
   77.1 A     9  2py          7.868272     0.068999
                              1.881288     0.316424
                              0.544249     0.744308
   78.1 A     9  2pz          7.868272     0.068999
                              1.881288     0.316424
                              0.544249     0.744308
   79.1 A     9  2px          0.168714     1.000000
   80.1 A     9  2py          0.168714     1.000000
   81.1 A     9  2pz          0.168714     1.000000
   82.1 A    10  1s        3047.524900     0.001835
                            457.369520     0.014037
                            103.948680     0.068843
                             29.210155     0.232184
                              9.286663     0.467941
                              3.163927     0.362312
   83.1 A    10  1s           7.868272    -0.119332
                              1.881288    -0.160854
                              0.544249     1.143456
   84.1 A    10  1s           0.168714     1.000000
   85.1 A    10  2px          7.868272     0.068999
                              1.881288     0.316424
                              0.544249     0.744308
   86.1 A    10  2py          7.868272     0.068999
                              1.881288     0.316424
                              0.544249     0.744308
   87.1 A    10  2pz          7.868272     0.068999
                              1.881288     0.316424
                              0.544249     0.744308
   88.1 A    10  2px          0.168714     1.000000
   89.1 A    10  2py          0.168714     1.000000
   90.1 A    10  2pz          0.168714     1.000000
   91.1 A    11  1s        3047.524900     0.001835
                            457.369520     0.014037
                            103.948680     0.068843
                             29.210155     0.232184
                              9.286663     0.467941
                              3.163927     0.362312
   92.1 A    11  1s           7.868272    -0.119332
                              1.881288    -0.160854
                              0.544249     1.143456
   93.1 A    11  1s           0.168714     1.000000
   94.1 A    11  2px          7.868272     0.068999
                              1.881288     0.316424
                              0.544249     0.744308
   95.1 A    11  2py          7.868272     0.068999
                              1.881288     0.316424
                              0.544249     0.744308
   96.1 A    11  2pz          7.868272     0.068999
                              1.881288     0.316424
                              0.544249     0.744308
   97.1 A    11  2px          0.168714     1.000000
   98.1 A    11  2py          0.168714     1.000000
   99.1 A    11  2pz          0.168714     1.000000
  100.1 A    12  1s        3047.524900     0.001835
                            457.369520     0.014037
                            103.948680     0.068843
                             29.210155     0.232184
                              9.286663     0.467941
                              3.163927     0.362312
  101.1 A    12  1s           7.868272    -0.119332
                              1.881288    -0.160854
                              0.544249     1.143456
  102.1 A    12  1s           0.168714     1.000000
  103.1 A    12  2px          7.868272     0.068999
                              1.881288     0.316424
                              0.544249     0.744308
  104.1 A    12  2py          7.868272     0.068999
                              1.881288     0.316424
                              0.544249     0.744308
  105.1 A    12  2pz          7.868272     0.068999
                              1.881288     0.316424
                              0.544249     0.744308
  106.1 A    12  2px          0.168714     1.000000
  107.1 A    12  2py          0.168714     1.000000
  108.1 A    12  2pz          0.168714     1.000000
  109.1 A    13  1s        3047.524900     0.001835
                            457.369520     0.014037
                            103.948680     0.068843
                             29.210155     0.232184
                              9.286663     0.467941
                              3.163927     0.362312
  110.1 A    13  1s           7.868272    -0.119332
                              1.881288    -0.160854
                              0.544249     1.143456
  111.1 A    13  1s           0.168714     1.000000
  112.1 A    13  2px          7.868272     0.068999
                              1.881288     0.316424
                              0.544249     0.744308
  113.1 A    13  2py          7.868272     0.068999
                              1.881288     0.316424
                              0.544249     0.744308
  114.1 A    13  2pz          7.868272     0.068999
                              1.881288     0.316424
                              0.544249     0.744308
  115.1 A    13  2px          0.168714     1.000000
  116.1 A    13  2py          0.168714     1.000000
  117.1 A    13  2pz          0.168714     1.000000
  118.1 A    14  1s        3047.524900     0.001835
                            457.369520     0.014037
                            103.948680     0.068843
                             29.210155     0.232184
                              9.286663     0.467941
                              3.163927     0.362312
  119.1 A    14  1s           7.868272    -0.119332
                              1.881288    -0.160854
                              0.544249     1.143456
  120.1 A    14  1s           0.168714     1.000000
  121.1 A    14  2px          7.868272     0.068999
                              1.881288     0.316424
                              0.544249     0.744308
  122.1 A    14  2py          7.868272     0.068999
                              1.881288     0.316424
                              0.544249     0.744308
  123.1 A    14  2pz          7.868272     0.068999
                              1.881288     0.316424
                              0.544249     0.744308
  124.1 A    14  2px          0.168714     1.000000
  125.1 A    14  2py          0.168714     1.000000
  126.1 A    14  2pz          0.168714     1.000000
  127.1 A    15  1s          18.731137     0.033495
                              2.825394     0.234727
                              0.640122     0.813757
  128.1 A    15  1s           0.161278     1.000000
  129.1 A    16  1s          18.731137     0.033495
                              2.825394     0.234727
                              0.640122     0.813757
  130.1 A    16  1s           0.161278     1.000000
  131.1 A    17  1s          18.731137     0.033495
                              2.825394     0.234727
                              0.640122     0.813757
  132.1 A    17  1s           0.161278     1.000000
  133.1 A    18  1s          18.731137     0.033495
                              2.825394     0.234727
                              0.640122     0.813757
  134.1 A    18  1s           0.161278     1.000000
  135.1 A    19  1s          18.731137     0.033495
                              2.825394     0.234727
                              0.640122     0.813757
  136.1 A    19  1s           0.161278     1.000000
  137.1 A    20  1s          18.731137     0.033495
                              2.825394     0.234727
                              0.640122     0.813757
  138.1 A    20  1s           0.161278     1.000000
  139.1 A    21  1s          18.731137     0.033495
                              2.825394     0.234727
                              0.640122     0.813757
  140.1 A    21  1s           0.161278     1.000000
  141.1 A    22  1s          18.731137     0.033495
                              2.825394     0.234727
                              0.640122     0.813757
  142.1 A    22  1s           0.161278     1.000000
  143.1 A    23  1s          18.731137     0.033495
                              2.825394     0.234727
                              0.640122     0.813757
  144.1 A    23  1s           0.161278     1.000000
  145.1 A    24  1s          18.731137     0.033495
                              2.825394     0.234727
                              0.640122     0.813757
  146.1 A    24  1s           0.161278     1.000000
  147.1 A    25  1s          18.731137     0.033495
                              2.825394     0.234727
                              0.640122     0.813757
  148.1 A    25  1s           0.161278     1.000000
  149.1 A    26  1s          18.731137     0.033495
                              2.825394     0.234727
                              0.640122     0.813757
  150.1 A    26  1s           0.161278     1.000000

 NUCLEAR CHARGE:                   96
 NUMBER OF PRIMITIVE AOS:         356
 NUMBER OF SYMMETRY AOS:          356
 NUMBER OF CONTRACTIONS:          150   ( 150A   )
 NUMBER OF CORE ORBITALS:          14   (  14A   )
 NUMBER OF VALENCE ORBITALS:       68   (  68A   )


 NUCLEAR REPULSION ENERGY  734.63106284


 Eigenvalues of metric

         1 0.575E-03 0.584E-03 0.206E-02 0.290E-02 0.371E-02 0.402E-02 0.547E-02 0.565E-02


 Contracted 2-electron integrals neglected if value below      1.0D-11
 AO integral compression algorithm  1   Integral accuracy      1.0D-11

     134.480 MB (compressed) written to integral file ( 28.1%)

     Node minimum: 28.312 MB, node maximum: 38.011 MB


 NUMBER OF SORTED TWO-ELECTRON INTEGRALS:   16034784.     BUFFER LENGTH:  32768
 NUMBER OF SEGMENTS:   2  SEGMENT LENGTH:   15989512      RECORD LENGTH: 524288

 Memory used in sort:      16.55 MW

 SORT1 READ    59981920. AND WROTE     8017469. INTEGRALS IN     24 RECORDS. CPU TIME:     0.72 SEC, REAL TIME:     1.31 SEC
 SORT2 READ    31845140. AND WROTE    64133475. INTEGRALS IN    512 RECORDS. CPU TIME:     0.16 SEC, REAL TIME:     0.38 SEC

 Node minimum:    16029122.  Node maximum:    16037616. integrals

 OPERATOR DM      FOR CENTER  0  COORDINATES:    0.000000    0.000000    0.000000


 **********************************************************************************************************************************
 DATASETS  * FILE   NREC   LENGTH (MB)   RECORD NAMES
              1      18       21.20       500      610      700      900      950      970     1000      129      960     1100   
                                          VAR    BASINP    GEOM    SYMINP    ZMAT    AOBASIS   BASIS     P2S    ABASIS      S 
                                         1400     1410     1200     1210     1080     1600     1650     1700   
                                           T        V       H0       H01     AOSYM     SMH    MOLCAS    OPER   

 PROGRAMS   *        TOTAL       INT
 CPU TIMES  *         3.11      2.66
 REAL TIME  *         7.48 SEC
 DISK USED  *       517.04 MB      
 GA USED    *         0.01 MB       (max)       0.00 MB       (current)
 **********************************************************************************************************************************


 PROGRAM * RHF-SCF (CLOSED SHELL)       Authors: W. Meyer, H.-J. Werner


 NUMBER OF ELECTRONS:      48+   48-    SPACE SYMMETRY=1    SPIN SYMMETRY: Singlet 
 CONVERGENCE THRESHOLDS:    1.00E-06 (Density)    1.92E-07 (Energy)
 MAX. NUMBER OF ITERATIONS:       60
 INTERPOLATION TYPE:            DIIS
 INTERPOLATION STEPS:              2 (START)      1 (STEP)
 LEVEL SHIFTS:                  0.00 (CLOSED)  0.00 (OPEN) 




   Atom=C  basis=MINAO             lmin=0  lmax=1
   Atom=H  basis=MINAO             lmin=0  lmax=0

 Orbital guess generated from atomic densities. Full valence occupancy:   48

 Molecular orbital dump at record        2100.2

 Initial occupancy:  48

 ITERATION    DDIFF          GRAD             ENERGY        2-EL.EN.            DIPOLE MOMENTS         DIIS   ORB.
    1      0.000D+00      0.000D+00      -536.84298815   1828.600863   -0.02681    0.00078   -0.04997    0    start
    2      0.000D+00      0.358D-02      -536.94270665   1819.072519   -0.01397    0.00197   -0.00261    1    diag
    3      0.767D-02      0.101D-02      -536.95012267   1822.169189   -0.02123    0.00315   -0.02427    2    diag
    4      0.242D-02      0.288D-03      -536.95086765   1821.507461   -0.01640    0.00331   -0.01060    3    diag
    5      0.836D-03      0.444D-04      -536.95088310   1821.510336   -0.02200    0.00438   -0.01831    4    diag
    6      0.102D-03      0.178D-04      -536.95088585   1821.514566   -0.02011    0.00341   -0.01428    5    diag
    7      0.339D-04      0.527D-05      -536.95088611   1821.514378   -0.02121    0.00426   -0.01519    6    diag
    8      0.113D-04      0.174D-05      -536.95088616   1821.514351   -0.02132    0.00405   -0.01497    7    diag
    9      0.519D-05      0.587D-06      -536.95088617   1821.514398   -0.02146    0.00421   -0.01497    8    diag
   10      0.177D-05      0.245D-06      -536.95088617   1821.514407   -0.02151    0.00416   -0.01498    9    orth
   11      0.548D-06      0.997D-07      -536.95088617   1821.514387   -0.02151    0.00418   -0.01498    0    orth

 Final occupancy:  48

 !RHF STATE 1.1 Energy               -536.950886169873
 Nuclear energy                       734.63106284
 One-electron energy                -2182.33914270
 Two-electron energy                  910.75719369
 Virial quotient                       -0.99873468
 !RHF STATE 1.1 Dipole moment          -0.02150755     0.00418450    -0.01497779
 Dipole moment /Debye                  -0.05466315     0.01063525    -0.03806725

 ELECTRON ORBITALS
 =================


   Orb  Occ    Energy  Couls-En    Coefficients

                                   1 1s      1 1s      1 1s      1 2px     1 2py     1 2pz     1 2px     1 2py     1 2pz     2 1s   
                                   2 1s      2 1s      2 2px     2 2py     2 2pz     2 2px     2 2py     2 2pz     3 1s      3 1s   
                                   3 1s      3 2px     3 2py     3 2pz     3 2px     3 2py     3 2pz     4 1s      4 1s      4 1s   
                                   4 2px     4 2py     4 2pz     4 2px     4 2py     4 2pz     5 1s      5 1s      5 1s      5 2px  
                                   5 2py     5 2pz     5 2px     5 2py     5 2pz     6 1s      6 1s      6 1s      6 2px     6 2py  
                                   6 2pz     6 2px     6 2py     6 2pz     7 1s      7 1s      7 1s      7 2px     7 2py     7 2pz  
                                   7 2px     7 2py     7 2pz     8 1s      8 1s      8 1s      8 2px     8 2py     8 2pz     8 2px  
                                   8 2py     8 2pz     9 1s      9 1s      9 1s      9 2px     9 2py     9 2pz     9 2px     9 2py  
                                   9 2pz    10 1s     10 1s     10 1s     10 2px    10 2py    10 2pz    10 2px    10 2py    10 2pz  
                                  11 1s     11 1s     11 1s     11 2px    11 2py    11 2pz    11 2px    11 2py    11 2pz    12 1s   
                                  12 1s     12 1s     12 2px    12 2py    12 2pz    12 2px    12 2py    12 2pz    13 1s     13 1s   
                                  13 1s     13 2px    13 2py    13 2pz    13 2px    13 2py    13 2pz    14 1s     14 1s     14 1s   
                                  14 2px    14 2py    14 2pz    14 2px    14 2py    14 2pz    15 1s     15 1s     16 1s     16 1s   
                                  17 1s     17 1s     18 1s     18 1s     19 1s     19 1s     20 1s     20 1s     21 1s     21 1s   
                                  22 1s     22 1s     23 1s     23 1s     24 1s     24 1s     25 1s     25 1s     26 1s     26 1s   


   1.1   2   -11.2477  -46.4190 -0.050066 -0.000602 -0.003528 -0.000196  0.000116 -0.000008  0.001408 -0.001051  0.000224 -0.992901
                                -0.025332  0.020930  0.000051 -0.000027  0.000002 -0.001441  0.001153 -0.000421 -0.044068 -0.000147
                                -0.007159 -0.000029 -0.000197  0.000107  0.001134  0.003090 -0.001532 -0.001849 -0.000107  0.002365
                                 0.000091 -0.000022  0.000002 -0.000290 -0.001476  0.000738  0.000772  0.000245 -0.002579  0.000041
                                -0.000026  0.000010 -0.001386  0.000653 -0.000276 -0.001811 -0.000086  0.002300  0.000071 -0.000051
                                 0.000022  0.001186  0.000832 -0.000441 -0.044850 -0.000188 -0.006662  0.000193  0.000111 -0.000069
                                -0.001988 -0.002301  0.001197 -0.003737 -0.000036  0.001215 -0.000144 -0.000008 -0.000047  0.000711
                                -0.000334  0.000707 -0.001810  0.000113 -0.000901 -0.000043  0.000041  0.000037  0.001212 -0.000780
                                -0.000498 -0.000042  0.000015  0.000195 -0.000035  0.000008 -0.000008 -0.000277  0.000190  0.000001
                                 0.000022  0.000036  0.000113 -0.000009  0.000005 -0.000017 -0.000024  0.000027  0.000108  0.000011
                                 0.000013 -0.000052 -0.000008  0.000008  0.000008  0.000062 -0.000029  0.000043 -0.000005 -0.000006
                                 0.000383 -0.000017  0.000011 -0.000003 -0.000106  0.000097  0.000091 -0.000040  0.000055 -0.000909
                                 0.000016 -0.000008 -0.000003 -0.000184 -0.000042 -0.000511  0.000139 -0.000018  0.000117 -0.000472
                                 0.000045  0.000305 -0.000050 -0.000415  0.000033  0.000253  0.000105 -0.000397  0.000072  0.000222
                                -0.000022 -0.000142 -0.000013 -0.000059 -0.000004 -0.000029  0.000001  0.000015 -0.000026 -0.000149

   2.1   2   -11.2469  -46.4224  0.004113 -0.000021 -0.000436 -0.000194  0.000142  0.000040  0.002750 -0.001340 -0.000109 -0.002223
                                -0.000243  0.001580 -0.000085  0.000021 -0.000041  0.002320 -0.001082  0.000653 -0.000173 -0.000084
                                 0.000701 -0.000025  0.000013  0.000011 -0.000603 -0.000342  0.000055 -0.000041 -0.000040 -0.000327
                                -0.000022  0.000025 -0.000013 -0.000048  0.000046  0.000022 -0.000020 -0.000026  0.000159 -0.000014
                                 0.000008  0.000000  0.000082 -0.000084  0.000019 -0.000037 -0.000039 -0.000311 -0.000034  0.000008
                                 0.000002 -0.000043 -0.000064  0.000029 -0.000157 -0.000074  0.000699 -0.000018  0.000002 -0.000012
                                 0.000082  0.000656 -0.000345  0.044738  0.000913  0.000860 -0.000213  0.000026  0.000001  0.002285
                                 0.000035 -0.000504  0.993287  0.025467 -0.020817 -0.000027 -0.000004 -0.000001 -0.001891  0.000884
                                -0.000413  0.043415  0.000126  0.007119  0.000047 -0.000021  0.000217 -0.000408 -0.000470 -0.003510
                                 0.001704  0.000093 -0.002327  0.000084 -0.000043 -0.000008  0.000352  0.000093  0.001572 -0.000781
                                -0.000251  0.002603  0.000045 -0.000026  0.000009 -0.001338  0.000792 -0.000224  0.001680  0.000084
                                -0.002371  0.000078 -0.000049  0.000032  0.000574 -0.000629 -0.001313  0.042695  0.000110  0.006980
                                 0.000113 -0.000078 -0.000186 -0.000603  0.001046  0.003210 -0.000181 -0.000071  0.000044  0.000262
                                 0.000007  0.000052  0.000001  0.000046  0.000003  0.000031  0.000034  0.000326 -0.000197 -0.000095
                                -0.000101  0.000382 -0.000042 -0.000272  0.000049  0.000422 -0.000036 -0.000258 -0.000103  0.000407

   3.1   2   -11.2405  -45.8592  0.920989  0.022996 -0.014849 -0.000108  0.000206 -0.000144  0.000564 -0.002276  0.001936 -0.047509
                                -0.001951  0.007344 -0.000188  0.000047 -0.000020  0.001939  0.000671 -0.000630 -0.006038 -0.000053
                                -0.003466 -0.000139  0.000088 -0.000106  0.001470  0.001035 -0.000239 -0.000667 -0.000235  0.002529
                                 0.000034  0.000004  0.000012  0.000229 -0.001550  0.000604  0.000083  0.000059 -0.001672 -0.000024
                                -0.000007 -0.000001 -0.001002  0.000428 -0.000147 -0.000530 -0.000163  0.002215  0.000019 -0.000009
                                -0.000011  0.001259  0.000287 -0.000116 -0.005930 -0.000128 -0.001112 -0.000069  0.000068  0.000025
                                 0.000903 -0.001171  0.000426  0.375520  0.008770  0.000098  0.000254 -0.000049 -0.000023 -0.003156
                                 0.000887  0.000344 -0.020728 -0.000744  0.002457  0.000048 -0.000030  0.000045 -0.000088  0.000022
                                -0.000468 -0.002376  0.000031 -0.001713  0.000104 -0.000075  0.000085 -0.001247  0.000822 -0.000208
                                -0.000282 -0.000174  0.002087  0.000003  0.000003 -0.000013 -0.000987  0.000444 -0.000488  0.000088
                                 0.000054 -0.000751 -0.000010  0.000003 -0.000008  0.000676 -0.000333  0.000320 -0.000213 -0.000121
                                 0.001770 -0.000013  0.000008  0.000006 -0.000575  0.000468  0.000435 -0.002122 -0.000028 -0.001474
                                 0.000083 -0.000033 -0.000011 -0.000815  0.000331 -0.000611 -0.000335  0.001413 -0.000077 -0.000484
                                 0.000053  0.000466 -0.000044 -0.000238  0.000024  0.000337 -0.000105 -0.000440 -0.000307  0.000458
                                -0.000126  0.000103 -0.000011  0.000165 -0.000053 -0.000216  0.000001  0.000182 -0.000078 -0.000134

   4.1   2   -11.2382  -45.8742 -0.376300 -0.010359  0.013708 -0.000229 -0.000075  0.000211  0.003379  0.000424 -0.001825  0.015397
                                 0.000632 -0.002654  0.000020 -0.000031  0.000016 -0.000676  0.000008  0.000216  0.002155  0.000062
                                 0.000650  0.000006 -0.000012  0.000006 -0.000202 -0.000406  0.000146  0.000299  0.000024 -0.000365
                                -0.000022  0.000007  0.000001  0.000132  0.000298 -0.000151  0.000157 -0.000004  0.000502  0.000010
                                -0.000006  0.000003  0.000186 -0.000042  0.000041  0.000622  0.000049 -0.000259  0.000000  0.000011
                                 0.000014 -0.000252 -0.000263  0.000034  0.003475  0.000058  0.000362  0.000015 -0.000038 -0.000033
                                 0.000281  0.000353 -0.000038  0.921576  0.023831 -0.019430  0.000014 -0.000234  0.000206  0.001947
                                 0.001511 -0.002313 -0.039500 -0.001299  0.004696  0.000050 -0.000049 -0.000005 -0.000811  0.000191
                                 0.001103 -0.006576 -0.000137 -0.002951  0.000138 -0.000137  0.000084 -0.001332  0.001389  0.000760
                                -0.000917 -0.000258  0.003147 -0.000020  0.000020 -0.000006 -0.001132  0.000269 -0.001295  0.000010
                                 0.000067 -0.001458 -0.000001 -0.000007 -0.000005  0.001098 -0.000672  0.000045 -0.000930 -0.000242
                                 0.003153 -0.000031 -0.000012  0.000020 -0.001285  0.001071  0.000413 -0.006218 -0.000154 -0.001779
                                 0.000202 -0.000023 -0.000021 -0.002125  0.000925 -0.000677 -0.000110 -0.001192  0.000003  0.000100
                                -0.000020 -0.000099 -0.000003  0.000023 -0.000023 -0.000121 -0.000002  0.000248 -0.000111  0.001975
                                -0.000138 -0.000423  0.000021  0.000420 -0.000075 -0.000312 -0.000005  0.000326 -0.000186 -0.000272

   5.1   2   -11.2363  -43.6010 -0.002552  0.000100 -0.000853 -0.000001  0.000007 -0.000005  0.000735 -0.000341  0.000101  0.021009
                                 0.000916 -0.000695 -0.000193  0.000146 -0.000060  0.001071 -0.000716  0.000292 -0.257282 -0.005714
                                -0.000433 -0.000160  0.000100 -0.000034  0.001773 -0.000603  0.000225 -0.737433 -0.018122  0.010873
                                -0.000105  0.000136 -0.000067  0.000321 -0.001595  0.000766 -0.395389 -0.008844 -0.001021  0.000080
                                 0.000017 -0.000015 -0.002160  0.000564 -0.000201 -0.445063 -0.010761  0.006274 -0.000105  0.000101
                                -0.000042  0.001077  0.000111 -0.000099 -0.163872 -0.003582 -0.000175 -0.000110  0.000089 -0.000039
                                 0.000956 -0.000741  0.000333  0.000423  0.000027  0.000233 -0.000036  0.000024 -0.000001  0.000413
                                -0.000105 -0.000102 -0.000078  0.000060 -0.000224 -0.000038  0.000008 -0.000003  0.000506 -0.000238
                                 0.000143  0.000079  0.000023 -0.000244 -0.000005 -0.000003  0.000001 -0.000097  0.000105  0.000149
                                 0.000067  0.000005  0.000140 -0.000006  0.000005 -0.000004 -0.000036  0.000006 -0.000040  0.000051
                                 0.000008 -0.000068 -0.000002  0.000002 -0.000001  0.000040 -0.000025  0.000011  0.000074  0.000008
                                 0.000115 -0.000007  0.000004  0.000002 -0.000016  0.000025  0.000020  0.000024  0.000013 -0.000145
                                -0.000001  0.000005 -0.000000 -0.000102 -0.000002 -0.000158  0.000024 -0.000090  0.000093 -0.000821
                                 0.000284 -0.001390  0.000165 -0.001408  0.000174 -0.000922  0.000040 -0.000614  0.000000 -0.000086
                                -0.000010 -0.000075 -0.000000  0.000002 -0.000001 -0.000015 -0.000001 -0.000003 -0.000010 -0.000081

   6.1   2   -11.2360  -43.7285 -0.000891 -0.000010 -0.000105 -0.000017 -0.000022  0.000017  0.000847  0.000169 -0.000296  0.007158
                                 0.000333 -0.000773 -0.000141 -0.000117  0.000051  0.000752 -0.000329  0.000212  0.238421  0.005649
                                 0.000102  0.000001 -0.000143  0.000066 -0.000955  0.000061 -0.000035  0.495795  0.012567 -0.008019
                                -0.000146 -0.000214  0.000111  0.000623  0.001434 -0.000704 -0.098835 -0.002284  0.000545 -0.000120
                                -0.000206  0.000103  0.000985  0.001858 -0.000928 -0.729924 -0.018162  0.010113 -0.000172 -0.000195
                                 0.000102  0.000994  0.001076 -0.000545 -0.383060 -0.009084  0.001751 -0.000192 -0.000051  0.000035
                                 0.001109 -0.000386  0.000117  0.000759  0.000030 -0.000906  0.000047 -0.000013  0.000006  0.000037
                                 0.000176 -0.000321 -0.000040 -0.000005  0.000165  0.000002 -0.000007  0.000003 -0.000284  0.000165
                                 0.000028  0.000020 -0.000002  0.000072 -0.000006 -0.000004  0.000000  0.000105 -0.000048 -0.000038
                                -0.000012 -0.000001 -0.000102  0.000003  0.000000  0.000002  0.000025 -0.000025  0.000016 -0.000027
                                -0.000006  0.000045  0.000002 -0.000002 -0.000000 -0.000035  0.000022 -0.000012 -0.000027  0.000001
                                -0.000121  0.000003 -0.000003 -0.000000  0.000038 -0.000024 -0.000025 -0.000032 -0.000010  0.000177
                                -0.000002  0.000005  0.000000  0.000065 -0.000025  0.000117  0.000072  0.000160 -0.000131  0.000560
                                -0.000209  0.000666  0.000043 -0.000271  0.000293 -0.001267  0.000191 -0.000800 -0.000010 -0.000085
                                 0.000011  0.000028  0.000002  0.000002  0.000002  0.000013  0.000000 -0.000005  0.000007  0.000040

   7.1   2   -11.2353  -43.5100  0.000404  0.000012 -0.000038  0.000022  0.000001  0.000001 -0.000023 -0.000258  0.000170 -0.000045
                                 0.000012  0.000210  0.000022 -0.000008 -0.000007 -0.000072  0.000106 -0.000007  0.000092  0.000010
                                -0.000016  0.000014 -0.000010 -0.000001 -0.000071  0.000140 -0.000056 -0.000121  0.000010 -0.000098
                                 0.000002 -0.000001  0.000003 -0.000089  0.000019 -0.000015 -0.000147 -0.000003 -0.000027  0.000001
                                 0.000002 -0.000001 -0.000005 -0.000026  0.000013 -0.000055  0.000000  0.000013  0.000003 -0.000002
                                 0.000001  0.000016  0.000004  0.000000  0.000141  0.000018 -0.000093  0.000001  0.000001  0.000001
                                -0.000019 -0.000065  0.000016 -0.002858  0.000151 -0.001357  0.000004 -0.000014  0.000008 -0.000940
                                 0.000585 -0.000114  0.019077  0.000842 -0.000356  0.000204 -0.000128  0.000014 -0.001357  0.000730
                                -0.000503 -0.153598 -0.003371  0.000308  0.000112 -0.000070 -0.000010 -0.000918  0.000528 -0.000150
                                -0.417018 -0.010014  0.005337  0.000128 -0.000092 -0.000038 -0.000649  0.000300 -0.000454 -0.428309
                                -0.009711 -0.000165 -0.000034  0.000002 -0.000059  0.001606 -0.000779  0.000914 -0.742638 -0.018248
                                 0.010708  0.000149 -0.000100 -0.000060 -0.001034  0.000905  0.001108 -0.242648 -0.005334 -0.000809
                                 0.000176 -0.000102  0.000025 -0.001475  0.000754 -0.000642 -0.000020 -0.000185  0.000008 -0.000041
                                 0.000003 -0.000006  0.000003  0.000004  0.000002  0.000002 -0.000004 -0.000014  0.000041 -0.000082
                                 0.000043 -0.000546  0.000162 -0.000922  0.000180 -0.001420  0.000293 -0.001392  0.000101 -0.000788

   8.1   2   -11.2349  -43.7998  0.000054 -0.000020  0.000601  0.000041 -0.000005  0.000001 -0.000217  0.000139 -0.000026 -0.000032
                                 0.000034 -0.000243  0.000015 -0.000014  0.000002 -0.000351  0.000252 -0.000104  0.000180  0.000021
                                -0.000220 -0.000002  0.000002 -0.000003  0.000154  0.000049 -0.000024 -0.000078 -0.000004  0.000150
                                 0.000004 -0.000004  0.000002  0.000028 -0.000047  0.000020 -0.000066  0.000005 -0.000049  0.000003
                                -0.000002  0.000001 -0.000049  0.000020 -0.000007 -0.000044  0.000001  0.000138  0.000006  0.000000
                                -0.000000  0.000047 -0.000016  0.000007  0.000064  0.000010 -0.000121 -0.000002 -0.000001  0.000001
                                 0.000086 -0.000125  0.000055 -0.001192  0.000029 -0.000408 -0.000004  0.000006  0.000011 -0.000005
                                 0.000037 -0.000205  0.008343  0.000386 -0.001248  0.000066  0.000027  0.000217 -0.000715  0.000172
                                -0.000766 -0.400133 -0.009534  0.002664  0.000088 -0.000008  0.000169 -0.000949  0.000449 -0.000639
                                -0.729388 -0.018083  0.009612  0.000022  0.000042  0.000256 -0.000078 -0.000245 -0.001250 -0.115515
                                -0.002706  0.000986 -0.000014  0.000069  0.000257  0.000082 -0.000572 -0.002155  0.486213  0.012358
                                -0.008145 -0.000007  0.000066  0.000273  0.000317 -0.000589 -0.001605  0.223751  0.005307  0.000009
                                -0.000061  0.000066  0.000117  0.000881 -0.000430  0.000389  0.000020 -0.000100 -0.000011 -0.000043
                                -0.000001  0.000002 -0.000003 -0.000018 -0.000002 -0.000004 -0.000012 -0.000041 -0.000024 -0.000021
                                 0.000191 -0.000818  0.000286 -0.001346  0.000052 -0.000283 -0.000200  0.000642 -0.000123  0.000489

   9.1   2   -11.2347  -44.2981 -0.005040 -0.000081 -0.000643 -0.000018 -0.000003  0.000003  0.000435 -0.000120 -0.000060  0.052549
                                 0.002476 -0.011432 -0.000213  0.000053 -0.000009  0.005106 -0.001806  0.000647 -0.414835 -0.010657
                                 0.010707  0.000193 -0.000006  0.000016 -0.002825 -0.001896  0.000928 -0.049996 -0.001128 -0.001643
                                 0.000161 -0.000003 -0.000007 -0.001649  0.001453 -0.000615  0.503320  0.012600 -0.004711  0.000219
                                -0.000119  0.000059  0.000250 -0.000542  0.000230  0.148520  0.004203 -0.007310  0.000205 -0.000088
                                 0.000036 -0.003856  0.000306 -0.000013 -0.734647 -0.018997  0.018129  0.000128 -0.000278  0.000135
                                -0.000018  0.004595 -0.002234  0.000651  0.000028  0.000176 -0.000028  0.000021  0.000001  0.000642
                                -0.000268 -0.000049 -0.000051  0.000043 -0.000368 -0.000020  0.000004 -0.000013  0.000499 -0.000239
                                 0.000295 -0.000012  0.000024 -0.000318 -0.000000 -0.000003  0.000002 -0.000063  0.000097  0.000184
                                -0.000252 -0.000005  0.000133 -0.000007  0.000004 -0.000002 -0.000027 -0.000000 -0.000051 -0.000128
                                 0.000003 -0.000047 -0.000003  0.000001 -0.000003  0.000032 -0.000020 -0.000004 -0.000058  0.000011
                                 0.000067 -0.000006  0.000004  0.000003 -0.000005  0.000004 -0.000015 -0.000071  0.000005 -0.000010
                                -0.000006  0.000006 -0.000000 -0.000103  0.000031 -0.000101  0.000019  0.000027  0.000179 -0.000110
                                -0.000055 -0.000543 -0.000153  0.001145 -0.000108 -0.000395  0.000284 -0.000616  0.000033 -0.000038
                                -0.000009 -0.000070  0.000001  0.000004 -0.000001 -0.000013 -0.000003 -0.000015 -0.000010 -0.000073

  10.1   2   -11.2344  -44.6427  0.001235  0.000038  0.000257  0.000018 -0.000031  0.000007 -0.000945 -0.000225  0.000319 -0.014417
                                -0.000664  0.002739 -0.000056 -0.000224  0.000114  0.000432  0.003942 -0.001966  0.772092  0.020014
                                -0.017897 -0.000328 -0.000150  0.000066  0.003542  0.002063 -0.001035 -0.286063 -0.007896  0.010078
                                -0.000101  0.000190 -0.000088  0.001577 -0.002956  0.001347 -0.134540 -0.003418  0.001682 -0.000101
                                -0.000023  0.000011 -0.000611 -0.001060  0.000543  0.310871  0.008374 -0.008708  0.000176  0.000080
                                -0.000048 -0.002199 -0.000696  0.000408 -0.446988 -0.011676  0.010237 -0.000015 -0.000213  0.000107
                                -0.000102  0.001751 -0.000830  0.000537  0.000037  0.000520  0.000002  0.000014  0.000017 -0.000144
                                -0.000201  0.000176  0.000003 -0.000013 -0.000153  0.000013 -0.000019 -0.000010 -0.000007  0.000109
                                 0.000114  0.000029  0.000004 -0.000072  0.000007  0.000001  0.000002  0.000005 -0.000041 -0.000001
                                 0.000104 -0.000003  0.000000  0.000001 -0.000001  0.000002 -0.000001  0.000013 -0.000001  0.000072
                                 0.000000  0.000042 -0.000000  0.000001 -0.000002 -0.000014  0.000001 -0.000010  0.000004  0.000005
                                -0.000040  0.000002  0.000001  0.000002  0.000007 -0.000017 -0.000050 -0.000150 -0.000018  0.000170
                                -0.000003 -0.000001 -0.000001 -0.000036  0.000034  0.000086 -0.000029 -0.000060 -0.000255  0.000951
                                 0.000095  0.000020  0.000039 -0.000273 -0.000073  0.000274  0.000118 -0.000736 -0.000008  0.000061
                                -0.000001  0.000033 -0.000000  0.000001 -0.000001  0.000002 -0.000003 -0.000015 -0.000000  0.000011

  11.1   2   -11.2339  -43.5113  0.002185  0.000060  0.002182 -0.000038  0.000010 -0.000003 -0.000468  0.000466 -0.000246 -0.025047
                                -0.001590  0.012379  0.000156 -0.000088  0.000034 -0.006618  0.003482 -0.001370  0.314932  0.008726
                                -0.017147 -0.000133 -0.000067  0.000028  0.006710  0.002879 -0.001526 -0.344173 -0.010144  0.021695
                                 0.000025  0.000271 -0.000132 -0.000667 -0.008147  0.003900  0.744897  0.019950 -0.026955  0.000334
                                -0.000178  0.000082 -0.008459  0.004412 -0.001866 -0.377940 -0.010979  0.022122 -0.000248 -0.000174
                                 0.000093  0.007331  0.004821 -0.002575  0.277963  0.007807 -0.016743 -0.000024  0.000124 -0.000063
                                 0.000893 -0.006647  0.003197 -0.000246  0.000009 -0.000360  0.000005  0.000011  0.000005  0.000059
                                 0.000007 -0.000144  0.000030 -0.000022  0.000077  0.000008 -0.000006 -0.000008 -0.000170  0.000103
                                 0.000129 -0.000072 -0.000005 -0.000047  0.000007 -0.000000  0.000001  0.000050 -0.000030  0.000012
                                 0.000095 -0.000002 -0.000027  0.000000 -0.000001  0.000003  0.000010 -0.000006 -0.000014  0.000060
                                -0.000001  0.000018  0.000001 -0.000001 -0.000002 -0.000015  0.000007 -0.000011 -0.000031  0.000002
                                -0.000078  0.000003 -0.000002  0.000001  0.000023 -0.000022 -0.000026 -0.000029 -0.000009  0.000175
                                -0.000004  0.000002  0.000000  0.000031  0.000013  0.000092  0.000008  0.000009 -0.000221 -0.000782
                                 0.000183  0.001088 -0.000335 -0.000287  0.000199  0.001044 -0.000203 -0.000862 -0.000001 -0.000045
                                 0.000003  0.000021  0.000002  0.000007  0.000001  0.000006 -0.000001 -0.000007  0.000004  0.000025

  12.1   2   -11.2336  -44.2652  0.000495 -0.000024  0.000096  0.000036  0.000006 -0.000013 -0.000485 -0.000186  0.000239 -0.000027
                                 0.000020 -0.000037  0.000013 -0.000023  0.000009 -0.000148  0.000466 -0.000235 -0.000133  0.000019
                                -0.000343  0.000002 -0.000001 -0.000001  0.000056  0.000248 -0.000105  0.000039  0.000004  0.000046
                                 0.000007 -0.000002  0.000001 -0.000076 -0.000058  0.000024 -0.000060  0.000004 -0.000056  0.000000
                                -0.000003  0.000001 -0.000042 -0.000023  0.000017 -0.000008  0.000010  0.000034  0.000006  0.000001
                                -0.000000 -0.000000 -0.000039  0.000014 -0.000061  0.000008  0.000069  0.000008 -0.000004 -0.000000
                                 0.000100 -0.000051  0.000030 -0.005288 -0.000037 -0.000825  0.000022 -0.000012  0.000010 -0.000744
                                 0.000314  0.000206  0.047607  0.002191 -0.009392  0.000174 -0.000075  0.000097 -0.004077  0.002011
                                -0.002092 -0.717652 -0.018489  0.016788 -0.000236  0.000206  0.000165  0.001870 -0.002115 -0.003535
                                 0.112202  0.003157 -0.005189 -0.000179  0.000103 -0.000027  0.002655 -0.001315  0.001276  0.568576
                                 0.014403 -0.007706 -0.000246  0.000153 -0.000040  0.000501 -0.000191  0.000622 -0.126588 -0.003250
                                 0.001561 -0.000089  0.000025 -0.000140  0.001413 -0.000675  0.000841 -0.351061 -0.008907  0.007799
                                -0.000128  0.000062 -0.000072  0.000786  0.000047  0.002305  0.000012 -0.000310  0.000001 -0.000082
                                 0.000005  0.000014  0.000001 -0.000007 -0.000003 -0.000017 -0.000010 -0.000022  0.000026  0.000020
                                 0.000264 -0.000657 -0.000088 -0.000286 -0.000181  0.001071 -0.000012 -0.000436  0.000164 -0.000219

  13.1   2   -11.2333  -44.4687  0.000206  0.000049  0.000274 -0.000003  0.000010  0.000012  0.000383  0.000019 -0.000153 -0.000022
                                 0.000009 -0.000064 -0.000005 -0.000000 -0.000017  0.000094 -0.000192  0.000181 -0.000031 -0.000004
                                 0.000126  0.000001  0.000006 -0.000003 -0.000052 -0.000190  0.000062  0.000024 -0.000003 -0.000009
                                -0.000004  0.000001  0.000001  0.000068  0.000049 -0.000017  0.000005 -0.000002  0.000060  0.000001
                                 0.000001  0.000001  0.000026  0.000012 -0.000016 -0.000035 -0.000004 -0.000013 -0.000002  0.000000
                                -0.000000 -0.000008  0.000007  0.000010  0.000137 -0.000007  0.000011 -0.000005  0.000003  0.000003
                                -0.000013  0.000020 -0.000047 -0.001339  0.000055 -0.000495 -0.000007 -0.000032  0.000010  0.000266
                                 0.000142 -0.000815  0.013314  0.000597 -0.001840  0.000047 -0.000079 -0.000207 -0.000873  0.001249
                                 0.003505  0.446942  0.011762 -0.011306  0.000092 -0.000118 -0.000212 -0.001298  0.001348  0.001908
                                -0.358949 -0.009695  0.010969  0.000092 -0.000009  0.000201 -0.001450  0.000198 -0.002806  0.220831
                                 0.005752 -0.004825 -0.000105  0.000045 -0.000087  0.001042 -0.000904 -0.001072  0.227463  0.006271
                                -0.007383 -0.000158  0.000110  0.000068  0.002233 -0.001546 -0.000642 -0.750607 -0.019337  0.015908
                                -0.000155  0.000026 -0.000303  0.001217 -0.000007  0.003079 -0.000029  0.000122 -0.000007  0.000116
                                -0.000005 -0.000019 -0.000002  0.000002 -0.000001  0.000002  0.000003  0.000011  0.000000 -0.000310
                                -0.000124  0.000517  0.000096 -0.000221 -0.000075  0.000233 -0.000065  0.000053  0.000236 -0.001097

  14.1   2   -11.2329  -43.7003  0.000337 -0.000017  0.000314  0.000006  0.000004 -0.000015 -0.000052 -0.000017  0.000076 -0.000025
                                 0.000022 -0.000070  0.000011 -0.000005  0.000000 -0.000169  0.000109 -0.000048 -0.000053  0.000009
                                -0.000071  0.000005 -0.000002 -0.000002  0.000023  0.000051 -0.000012  0.000005  0.000004  0.000016
                                 0.000002 -0.000002  0.000002 -0.000015 -0.000003 -0.000005 -0.000015  0.000003 -0.000014  0.000002
                                -0.000000 -0.000000 -0.000019 -0.000002  0.000004 -0.000010  0.000001  0.000063  0.000004 -0.000000
                                 0.000000  0.000025 -0.000014  0.000006  0.000013  0.000007 -0.000083 -0.000002 -0.000000  0.000001
                                 0.000041 -0.000065  0.000028 -0.002979 -0.000099 -0.002086 -0.000028  0.000008  0.000006 -0.000686
                                 0.000451 -0.000340  0.030958  0.001888 -0.013840  0.000180 -0.000104  0.000003 -0.007185  0.004086
                                -0.001079 -0.303332 -0.008475  0.017590 -0.000098  0.000093  0.000091  0.004005 -0.003901 -0.005435
                                 0.380865  0.011012 -0.022022 -0.000109 -0.000002 -0.000288  0.003100  0.000193  0.008609 -0.650820
                                -0.017596  0.025879  0.000291 -0.000176  0.000042 -0.008263  0.004784 -0.001601  0.369767  0.010850
                                -0.022772 -0.000149  0.000148  0.000240  0.004032 -0.004290 -0.007442 -0.441537 -0.011989  0.020054
                                -0.000100  0.000019 -0.000185  0.003737 -0.000592  0.007303 -0.000003 -0.000123 -0.000003 -0.000016
                                -0.000000 -0.000005 -0.000001 -0.000006 -0.000001 -0.000004 -0.000007 -0.000015 -0.000001 -0.000094
                                 0.000213  0.000916 -0.000212 -0.001052  0.000302  0.000476 -0.000200 -0.001139  0.000264  0.000682

  15.1   2    -1.1682  -21.2149 -0.054114  0.106891  0.067034 -0.001193  0.015443 -0.016283 -0.014923  0.009227 -0.003999 -0.083563
                                 0.167865  0.076583 -0.021975  0.010919 -0.004425 -0.005687  0.004732 -0.002793 -0.069228  0.135915
                                 0.080884 -0.031789 -0.027684  0.013923 -0.004425 -0.005936  0.002348 -0.060918  0.119859  0.067392
                                 0.004254 -0.038134  0.018141  0.001965 -0.002283  0.001374 -0.058643  0.114959  0.071406  0.036394
                                -0.018731  0.008054  0.006461 -0.002735  0.001131 -0.060720  0.119933  0.063885  0.037983  0.016831
                                -0.009369  0.000509  0.000403 -0.000375 -0.069036  0.134984  0.086872  0.009819  0.038742 -0.019344
                                 0.001215  0.008567 -0.003627 -0.051610  0.100734  0.068914 -0.003951 -0.013234  0.015217  0.005919
                                -0.008659  0.007115 -0.072190  0.143874  0.070424  0.016441 -0.009984  0.002389  0.000895 -0.000912
                                -0.000108 -0.058315  0.114210  0.073518  0.009819 -0.014549 -0.033391  0.004663 -0.005586 -0.006867
                                -0.050830  0.100432  0.050338 -0.016397  0.002567 -0.031439  0.000783 -0.000069 -0.000110 -0.048932
                                 0.095804  0.060602 -0.029672  0.017293 -0.005929 -0.006488  0.003822 -0.001093 -0.050851  0.100590
                                 0.049831 -0.018405  0.017526  0.025077  0.000935 -0.000828  0.000436 -0.058519  0.114514  0.074162
                                 0.006627  0.004280  0.036863  0.005482 -0.000531  0.008435  0.025433  0.006418  0.028099  0.005083
                                 0.023033  0.001861  0.022084  0.002897  0.022904  0.001274  0.027887  0.004172  0.024772  0.006702
                                 0.023562  0.005054  0.019205  0.000994  0.018484  0.002935  0.019204  0.000897  0.023742  0.004579

  16.1   2    -1.1610  -20.9760  0.012525 -0.024691 -0.014303  0.030757 -0.012009  0.001532  0.003767  0.002546 -0.002245  0.064571
                                -0.128227 -0.075950  0.031782 -0.014724  0.005366  0.002162 -0.005016  0.002173  0.060368 -0.118490
                                -0.068706  0.032965  0.020038 -0.010469  0.004807  0.000658 -0.000334  0.058466 -0.114931 -0.066513
                                -0.001704  0.035836 -0.017203  0.000739  0.004364 -0.002180  0.057776 -0.113456 -0.067054 -0.034883
                                 0.018044 -0.007766 -0.004200  0.002761 -0.001255  0.058721 -0.115515 -0.067291 -0.034921 -0.017390
                                 0.009524 -0.003926 -0.001126  0.000775  0.061382 -0.120302 -0.073666 -0.002625 -0.035680  0.017459
                                -0.002176 -0.005018  0.002270 -0.020799  0.040364  0.028333  0.030374 -0.014535  0.004119  0.007736
                                -0.003602 -0.001067 -0.077091  0.153012  0.087270  0.033781 -0.018943  0.004460  0.007429 -0.004009
                                 0.003992 -0.070588  0.138680  0.079952  0.018513 -0.020739 -0.037356  0.003151 -0.002914 -0.003046
                                -0.067484  0.132731  0.076520 -0.019432  0.002060 -0.041769 -0.001667  0.000040 -0.004796 -0.066490
                                 0.130565  0.077347 -0.039352  0.022898 -0.007958 -0.005232  0.003101 -0.001128 -0.067737  0.133442
                                 0.076272 -0.022378  0.022189  0.034157 -0.001896  0.001713  0.003323 -0.071521  0.140231  0.085119
                                 0.014392  0.001435  0.044086  0.002309  0.000599  0.005395 -0.004589  0.001941 -0.023761 -0.002256
                                -0.022658 -0.002930 -0.022236 -0.002774 -0.022667 -0.002515 -0.024280 -0.003276  0.008400 -0.000739
                                 0.027690  0.003089  0.026061  0.003034  0.025550  0.003199  0.026117  0.002697  0.028312  0.003105

  17.1   2    -1.0873  -21.0417 -0.115578  0.230528  0.135499  0.044081  0.019040 -0.037232  0.003229 -0.006296  0.006245 -0.052058
                                 0.107007  0.056455  0.056435 -0.025224  0.007864  0.030259 -0.017022  0.004875  0.000479 -0.001423
                                 0.017155  0.039271 -0.033372  0.014024 -0.006019 -0.010623  0.004733  0.049803 -0.098121 -0.077049
                                 0.026666  0.022877 -0.012045  0.002638  0.009363 -0.004424  0.067237 -0.134002 -0.078387 -0.028460
                                 0.015748 -0.006910  0.003110 -0.000521  0.000152  0.052502 -0.103298 -0.084413 -0.009789 -0.031756
                                 0.015591 -0.010030 -0.004635  0.002329  0.005257 -0.010706  0.011419  0.050668 -0.013455  0.004317
                                 0.000218  0.012561 -0.005395 -0.115330  0.227994  0.144166 -0.045575 -0.018574  0.035759 -0.012601
                                 0.007037 -0.002595 -0.050519  0.102672  0.061445 -0.054494  0.027428 -0.008210 -0.034552  0.016507
                                -0.010830  0.002783 -0.006120  0.019570 -0.042759  0.020800 -0.019889  0.004092 -0.006846 -0.012706
                                 0.049430 -0.096962 -0.081972 -0.009292  0.013209  0.031810  0.004713  0.000087  0.011132  0.065313
                                -0.130182 -0.075951  0.027609 -0.016031  0.006018 -0.003781  0.002405  0.000299  0.050496 -0.099125
                                -0.084961 -0.006113 -0.004670 -0.035015  0.007069 -0.006398 -0.006948  0.004364 -0.008806  0.011975
                                -0.043522  0.027127  0.003703  0.009022 -0.002059  0.011950  0.059072  0.005665  0.005953  0.008115
                                -0.023885 -0.006083 -0.032316 -0.003889 -0.025158 -0.006350  0.002562  0.007177  0.059310  0.005787
                                 0.003839  0.007903 -0.023599 -0.006291 -0.031195 -0.003201 -0.024018 -0.006001  0.003057  0.007528

  18.1   2    -1.0352  -20.4998  0.037360 -0.075663 -0.038827  0.069017 -0.024006  0.000649  0.010824  0.004675 -0.005562  0.091469
                                -0.184694 -0.136205  0.002293  0.011889 -0.006719 -0.014929  0.000650  0.000538  0.026947 -0.054091
                                -0.039487 -0.035033  0.059477 -0.027261 -0.000179  0.001997 -0.001004 -0.055687  0.111410  0.083828
                                -0.055624 -0.016105  0.009545 -0.002540 -0.000761  0.000472 -0.087163  0.174668  0.124500  0.027466
                                -0.007525  0.003070 -0.000606  0.002025 -0.000952 -0.042640  0.085082  0.063658 -0.020955  0.056130
                                -0.026352 -0.001407  0.005963 -0.002530  0.043597 -0.087021 -0.072106 -0.071118 -0.005303  0.005163
                                -0.009859 -0.001456  0.000413 -0.040535  0.081082  0.046250  0.066293 -0.025442  0.001867  0.012485
                                -0.002572 -0.005493 -0.092267  0.185853  0.137018 -0.004483  0.001945 -0.010706 -0.009446  0.004848
                                 0.001276 -0.029117  0.058559  0.043601 -0.051514  0.020293 -0.048972 -0.001628  0.000586 -0.002704
                                 0.054052 -0.107888 -0.081937 -0.036363  0.031240  0.035414 -0.001830  0.001760  0.002620  0.087669
                                -0.175565 -0.125308  0.024186 -0.015252  0.000940 -0.001482  0.000825 -0.000703  0.045495 -0.090601
                                -0.069342 -0.038309  0.011786 -0.050418 -0.002106 -0.000181 -0.004062 -0.040594  0.081293  0.065224
                                -0.053155  0.040130  0.029542 -0.003350  0.003941  0.002226 -0.020615 -0.001293 -0.016845 -0.003476
                                 0.031709  0.006218  0.049695  0.009107  0.024151  0.005264 -0.027676 -0.006503  0.021917  0.001887
                                 0.018215  0.004254 -0.030647 -0.006342 -0.049817 -0.009069 -0.025661 -0.005522  0.025862  0.005319

  19.1   2    -1.0200  -19.8857 -0.000390  0.001542 -0.004720  0.008108  0.012316 -0.009006 -0.001273 -0.003832  0.004132 -0.002547
                                 0.004838  0.007907  0.055793  0.091544 -0.046048  0.012125  0.017392 -0.009561 -0.113421  0.228200
                                 0.161062 -0.051502  0.031442 -0.013262  0.000240  0.009990 -0.004746 -0.109748  0.220433  0.163951
                                 0.061630 -0.024078  0.009932  0.003732  0.001623 -0.000744  0.002911 -0.005795 -0.004741  0.054299
                                 0.089119 -0.044501  0.004233  0.006448 -0.003226  0.112022 -0.224947 -0.169013 -0.052926  0.030746
                                -0.013106 -0.000990  0.004301 -0.002023  0.110300 -0.221853 -0.156676  0.059313 -0.022887  0.009159
                                 0.006637  0.005637 -0.002983 -0.001341  0.002352  0.005451 -0.010782  0.006312 -0.000784 -0.007182
                                 0.004180  0.000673  0.010453 -0.021158 -0.013965 -0.002386  0.001922  0.001758 -0.002605  0.001041
                                -0.002537  0.003252 -0.006710 -0.002735  0.006162 -0.002250  0.006162  0.000293 -0.000617 -0.001276
                                -0.006977  0.013974  0.010058  0.004647 -0.003866 -0.004017  0.000369 -0.000072  0.000364 -0.010341
                                 0.020724  0.015631 -0.002386  0.001839  0.001228  0.000092  0.000026  0.000400 -0.003521  0.006970
                                 0.004944  0.006042 -0.002265  0.006230  0.000668 -0.000216  0.000646  0.006933 -0.013917 -0.010899
                                 0.005025 -0.004064 -0.003973  0.001315 -0.000789  0.000462 -0.006543 -0.006953  0.069750  0.013110
                                 0.066611  0.013652 -0.001670 -0.000247 -0.067797 -0.013771 -0.067537 -0.012764  0.003352  0.001713
                                -0.001955  0.000258  0.004171  0.000776  0.006185  0.001255  0.002112  0.000547 -0.004147 -0.000257

  20.1   2    -1.0186  -19.8678 -0.001285  0.002193  0.004655  0.007444 -0.001673  0.002368  0.002831  0.000784  0.000904  0.006198
                                -0.012396 -0.010200  0.001137 -0.001802  0.001008 -0.000527 -0.001493  0.000447  0.004599 -0.009281
                                -0.006166 -0.001124  0.003630 -0.001694 -0.000161 -0.000928  0.000509 -0.001584  0.003164  0.002590
                                -0.005642 -0.000380  0.000361  0.000059  0.000216 -0.000123 -0.006200  0.012452  0.009472  0.000661
                                -0.001917  0.000937 -0.000097  0.000195 -0.000055 -0.004579  0.009168  0.006901 -0.001150  0.003705
                                -0.001746 -0.000279  0.000342 -0.000145  0.001702 -0.003396 -0.003129 -0.005692 -0.000354  0.000378
                                -0.000794  0.000105 -0.000013 -0.000601  0.001585 -0.000225 -0.002236  0.000512  0.013644  0.001327
                                 0.000517 -0.000286 -0.002847  0.005529  0.006305 -0.003626  0.028984  0.112365  0.000274  0.003681
                                 0.019844 -0.113606  0.228451  0.163198  0.053415 -0.029445  0.014627  0.004018 -0.000068  0.009310
                                -0.110251  0.221557  0.164241 -0.057281  0.035172 -0.004046 -0.001879  0.002262  0.003716  0.003135
                                -0.006291 -0.004781 -0.003513  0.028996  0.110496 -0.000483  0.002272  0.008234  0.112713 -0.226420
                                -0.168573  0.053015 -0.029893  0.013533  0.001758  0.000083  0.004531  0.110184 -0.221349 -0.159876
                                -0.055472  0.033760 -0.003325 -0.003925  0.003590  0.006056  0.002215  0.000987 -0.002861  0.000012
                                 0.000926  0.000076  0.003727  0.000710  0.002770  0.000580 -0.001000 -0.000060 -0.003961 -0.002961
                                 0.069179  0.012899  0.066929  0.013400 -0.001836 -0.000322 -0.068326 -0.013669 -0.067249 -0.013394

  21.1   2    -0.9766  -20.5833 -0.085805  0.171508  0.118913  0.096077 -0.004528 -0.031505  0.022668 -0.015643  0.008249  0.056183
                                -0.113149 -0.099256  0.083376 -0.039974  0.012126  0.040650 -0.022303  0.006750  0.057048 -0.116118
                                -0.071712  0.002796  0.036244 -0.018215 -0.012509 -0.008999  0.004222 -0.018757  0.038547  0.019950
                                -0.083442  0.001214  0.001797 -0.007283  0.008168 -0.003679 -0.079241  0.159581  0.135999  0.001868
                                -0.009160  0.004610 -0.000730  0.000886 -0.000262 -0.032024  0.065544  0.035582 -0.041068  0.061919
                                -0.028503 -0.015786  0.003292 -0.001117  0.051510 -0.104411 -0.061839 -0.047130 -0.016593  0.009138
                                -0.008237  0.018482 -0.008463 -0.085501  0.170542  0.118374 -0.097011  0.004013  0.030573 -0.021381
                                 0.015433 -0.009336  0.056519 -0.113939 -0.097138 -0.082383  0.040850 -0.010942 -0.040819  0.018634
                                -0.008466  0.055587 -0.112790 -0.068671  0.016090 -0.001979  0.039173  0.007624 -0.008076 -0.011327
                                -0.022301  0.045736  0.024069  0.062615 -0.046029 -0.026917  0.009965 -0.004879  0.005536 -0.079503
                                 0.160087  0.135071 -0.005575  0.002472 -0.005401  0.000725 -0.000099  0.000821 -0.029161  0.059921
                                 0.029793  0.058156 -0.024363  0.050113  0.014155 -0.008952 -0.000819  0.053161 -0.107617 -0.064795
                                 0.025931 -0.024997 -0.032202  0.015108 -0.005985  0.014748  0.050473  0.003754 -0.031071  0.001802
                                 0.013993  0.001597  0.055314  0.013773  0.023036  0.003295 -0.029460  0.002282  0.050255  0.003194
                                -0.031083  0.000678  0.016376  0.002308  0.055411  0.013945  0.021082  0.003005 -0.030326  0.001390

  22.1   2    -0.8657  -19.8171 -0.072914  0.149214  0.102593 -0.104874  0.003653  0.031784 -0.028290 -0.013039  0.020603 -0.045238
                                 0.093432  0.070594  0.079596 -0.087748  0.042427  0.053788 -0.022041  0.007254  0.058190 -0.118436
                                -0.094993  0.018003 -0.039849  0.019141 -0.019544 -0.011666  0.007639 -0.001667  0.004373 -0.005833
                                -0.125052  0.005834  0.001236 -0.027044  0.005872 -0.002355 -0.069675  0.141911  0.130166 -0.010483
                                 0.042317 -0.019749 -0.015120  0.012210 -0.004983  0.035970 -0.072402 -0.067140 -0.048069  0.083106
                                -0.038284 -0.004633  0.013780 -0.006952  0.034392 -0.071124 -0.040685  0.101934 -0.013891  0.003740
                                 0.028273  0.010805 -0.004807  0.072451 -0.147592 -0.097822 -0.097702  0.006526  0.032391 -0.023184
                                -0.007839  0.020414  0.042768 -0.087692 -0.070998  0.093861 -0.053802  0.049235  0.051037 -0.026780
                                 0.013112 -0.052330  0.106430  0.079890  0.037041 -0.016476  0.034525 -0.004823  0.006249  0.021847
                                -0.004248  0.007771  0.015278 -0.090656  0.064879  0.035130 -0.019258  0.013040  0.002957  0.067506
                                -0.137482 -0.125362 -0.025600  0.009254 -0.026605 -0.015961  0.007836 -0.006983 -0.028115  0.056202
                                 0.057296 -0.073388  0.029332 -0.066770 -0.013731  0.005638 -0.014151 -0.037658  0.077029  0.051830
                                 0.071181 -0.050346 -0.018392  0.005473 -0.009889 -0.017658  0.072371  0.022266 -0.052696 -0.012810
                                 0.004091  0.000435  0.071580  0.022667 -0.032777 -0.011092 -0.020954 -0.001774 -0.072420 -0.024454
                                 0.044132  0.008614  0.001590  0.001324 -0.069306 -0.022079  0.024826  0.008363  0.024987  0.003038

  23.1   2    -0.8317  -19.1580  0.001823 -0.003891  0.001601 -0.024985 -0.047154  0.037500 -0.018221 -0.011040  0.010296  0.005512
                                -0.010844 -0.018250 -0.104905 -0.157773  0.081495 -0.028891 -0.029520  0.015202  0.076497 -0.156007
                                -0.136933 -0.103461  0.065232 -0.027584 -0.044833  0.004120  0.000307 -0.085816  0.175522  0.152292
                                -0.082610  0.043784 -0.017795 -0.019708  0.033501 -0.015492  0.004955 -0.010097 -0.009049  0.095920
                                 0.149135 -0.074683  0.020201  0.029320 -0.014561  0.081190 -0.166118 -0.140276  0.090883 -0.056355
                                 0.024358  0.043447 -0.002342 -0.000581 -0.081799  0.166867  0.144210  0.098434 -0.048670  0.020378
                                 0.026802 -0.037554  0.018064  0.000102  0.000330  0.012492  0.052770 -0.030860  0.004336  0.015839
                                -0.016062  0.006063 -0.028884  0.059750  0.048003 -0.019714  0.006728 -0.018064 -0.000926  0.001130
                                -0.001708  0.021236 -0.042753 -0.043084 -0.027062  0.007387 -0.034963 -0.004501  0.000019 -0.007758
                                 0.008077 -0.016414 -0.010965  0.043313 -0.033234 -0.024032  0.007916 -0.007091 -0.008962 -0.030095
                                 0.061675  0.051604  0.014475 -0.005260  0.015416  0.012410 -0.006680  0.004450  0.019477 -0.039678
                                -0.030449  0.029285 -0.009327  0.037671  0.001877  0.001732  0.012870  0.010627 -0.021392 -0.022740
                                -0.042792  0.031861  0.023456 -0.011288  0.007769  0.003400  0.027973  0.015833 -0.089808 -0.028854
                                 0.095969  0.031141 -0.005583 -0.001917 -0.090868 -0.029367  0.095529  0.029386 -0.012175 -0.006107
                                -0.023284 -0.009418 -0.008898 -0.002699  0.033908  0.010579 -0.021687 -0.006989 -0.011330 -0.006135

  24.1   2    -0.8284  -19.1038 -0.002161  0.003744 -0.001984  0.038995 -0.013854  0.013025  0.008142 -0.004726  0.008612  0.021028
                                -0.043485 -0.037864 -0.015026  0.000461  0.002002 -0.003829 -0.000040 -0.000341 -0.007311  0.014585
                                 0.015869 -0.018491  0.034402 -0.015248 -0.004685  0.007170 -0.002659 -0.013816  0.028277  0.021999
                                 0.033850  0.007639 -0.004433  0.007086  0.006767 -0.003523  0.021216 -0.043476 -0.036211  0.014959
                                 0.000859 -0.000853  0.010357 -0.003248  0.001357 -0.006786  0.013927  0.008844  0.018133 -0.034603
                                 0.016187  0.000444 -0.008379  0.004046 -0.014189  0.028810  0.028663 -0.033111 -0.007761  0.005187
                                -0.008158 -0.002658  0.001765 -0.001724  0.003715  0.002984 -0.009350 -0.006376  0.050768 -0.007191
                                -0.000292  0.017927 -0.004451  0.008831  0.012105 -0.012815  0.053236  0.203556 -0.005209  0.014537
                                 0.048561 -0.080781  0.164802  0.142469 -0.105686  0.057917 -0.030343 -0.033212  0.023642  0.015322
                                 0.087209 -0.178116 -0.157079 -0.088548  0.050597 -0.016259 -0.029224  0.011241 -0.028411 -0.003395
                                 0.007000  0.006309  0.009118 -0.052311 -0.192280  0.002407 -0.011378 -0.039915 -0.083614  0.171073
                                 0.147041  0.096287 -0.053862  0.026932  0.033981 -0.024216 -0.014556  0.084558 -0.172551 -0.147903
                                 0.097662 -0.057561  0.016985  0.032548 -0.014433  0.030730  0.010715  0.004813  0.008026  0.003958
                                 0.015756  0.004924 -0.024087 -0.007507  0.007857  0.002405  0.016615  0.006856 -0.019177 -0.009689
                                 0.093077  0.029371 -0.098546 -0.032533  0.003836  0.001312  0.094503  0.030705 -0.098348 -0.031090

  25.1   2    -0.8095  -19.2358 -0.031245  0.062233  0.060488  0.100413 -0.029221 -0.011899  0.023005 -0.016731  0.006479  0.072033
[...]

  49.1  0.50548     0.052460    -0.006218  0.004259  0.172332 -0.050405 -0.154344 -0.174037  0.000227 -0.181243 -0.340447  0.005758
                                 0.003907 -0.158569 -0.017264 -0.069551 -0.180342 -0.045504 -0.166548 -0.221312 -0.003016  0.009802
                                 0.048750  0.000650  0.052880  0.166552 -0.020257  0.031690  0.312976  0.002112 -0.004394 -0.009024
                                -0.003697  0.012752  0.022260  0.018775  0.033292  0.010798  0.001493 -0.004173  0.016575 -0.007374
                                -0.073730 -0.154381 -0.007836 -0.116075 -0.251193 -0.002072  0.001381  0.048771  0.009760  0.035950
                                 0.082886  0.027887  0.041161  0.135898  0.006812 -0.014149 -0.088520 -0.012495  0.061425  0.112527
                                 0.041263  0.092446  0.159853  0.002238 -0.003381 -0.086448  0.062216  0.190611  0.147324  0.217517
                                 0.352427  0.160907 -0.004018 -0.003757  0.098276  0.063152  0.117136 -0.038735  0.115145  0.126292
                                -0.014697  0.010820 -0.024317 -0.120620 -0.036974 -0.096048  0.060895 -0.104269 -0.110149  0.104529
                                -0.004914  0.008405  0.064275 -0.031505 -0.025242  0.004494 -0.065012 -0.032878 -0.005806 -0.001211
                                 0.003600 -0.014825  0.062868  0.105163 -0.024903  0.104943  0.166954 -0.026738  0.005722 -0.008979
                                -0.075377 -0.003491 -0.042190  0.010515  0.017257 -0.072146  0.042692 -0.014272  0.029261  0.123689
                                -0.084644 -0.066998  0.031743 -0.056649 -0.167825 -0.001983  0.024834  0.111131  0.004180  0.075302
                                 0.003743  0.003744  0.001229  0.004237 -0.000644 -0.002206 -0.004301  0.047693 -0.029531 -0.162154
                                -0.006032 -0.029541 -0.006602 -0.015077 -0.001396 -0.005716  0.004476  0.018483  0.010270 -0.061369


 Natural orbital dump (state averaged) at molpro section  2140.2    (Orbital set 2)


 ONE-PARTICLE DENSITY MATRIX FOR STATE 1
 =======================================

  
                   1             2
         1     1.9890221    -0.0019469
         2    -0.0019469     0.0109779

 NATURAL ORBITALS
 ================

  48 1.9890240 SYM 1  E-VEC   0.9999995 -0.0009843

                      COEFFS  0.0055031 -0.0146403 -0.0250495  0.0274976  0.1503942  0.1828394  0.0678566  0.1400286  0.1668510
                              0.0002099  0.0030963 -0.0237018 -0.0133862 -0.0948544 -0.1755622 -0.0043425 -0.1278603 -0.1538305
                              0.0051007 -0.0125653 -0.0074647 -0.0186907 -0.0558512 -0.1456460 -0.0033677 -0.0955786 -0.0997282
                             -0.0022233  0.0035038  0.0232110  0.0099245  0.0192867  0.0541300  0.0276440  0.0232139  0.0475273
                              0.0008158 -0.0020475  0.0049578  0.0029772  0.0765307  0.1577776  0.0071181  0.0789855  0.1463398
                              0.0012962 -0.0034561 -0.0076298 -0.0036396  0.0287579  0.0587648 -0.0043735  0.0324242  0.0558047
                             -0.0033131  0.0068899  0.0102228  0.0094413 -0.0608559 -0.1391417 -0.0060926 -0.0486054 -0.1246624
                              0.0048025 -0.0116750 -0.0293030  0.0875365  0.2018619  0.1430784  0.0571328  0.1943469  0.1348896
                              0.0010483  0.0020286 -0.0274802 -0.0681646 -0.1282808 -0.0024680 -0.0794503 -0.1219146 -0.0317782
                              0.0102027 -0.0244430 -0.0339084 -0.0284052 -0.1017000  0.0517309 -0.0769783 -0.0734287 -0.0077501
                             -0.0040905  0.0067693  0.0428131  0.0099168  0.0457190 -0.0171371 -0.0074075  0.0594620 -0.0058705
                              0.0004344 -0.0010549  0.0038574  0.0662616  0.1056962 -0.0234134  0.0645699  0.1023229 -0.0113707
                              0.0038169 -0.0087284 -0.0202120  0.0340404  0.0220415 -0.0098964  0.0356747  0.0196272 -0.0017773
                             -0.0099387  0.0214140  0.0359441 -0.0864935 -0.0714473  0.0456866 -0.0465963 -0.0797332  0.0303101
                              0.0220362  0.0346132 -0.0073480  0.0237115 -0.0026314 -0.0065175  0.0012998  0.0014132  0.0026596
                              0.0046675  0.0001164  0.0002611  0.0288392  0.0362609 -0.0056780  0.0261776 -0.0073191 -0.0120161
                              0.0001528 -0.0005883  0.0075162  0.0119948  0.0025313 -0.0068865

  49 0.0109760 SYM 1  E-VEC   0.0009843  0.9999995

                      COEFFS -0.0061850  0.0041715  0.1721850 -0.0502414 -0.1534459 -0.1729449  0.0006334 -0.1804080 -0.3394538
                              0.0057589  0.0039252 -0.1587135 -0.0173441 -0.0701202 -0.1813968 -0.0455312 -0.1673171 -0.2222375
                             -0.0029860  0.0097274  0.0487059  0.0005380  0.0525465  0.1656832 -0.0202776  0.0311179  0.3123844
                              0.0020986 -0.0043734 -0.0088849 -0.0036377  0.0128682  0.0225844  0.0189406  0.0334313  0.0110829
                              0.0014983 -0.0041853  0.0166052 -0.0073564 -0.0732730 -0.1534394 -0.0077938 -0.1156043 -0.2503209
                             -0.0020641  0.0013600  0.0487259  0.0097387  0.0361233  0.0832398  0.0278612  0.0413557  0.1362350
                              0.0067928 -0.0141078 -0.0884600 -0.0124388  0.0610621  0.1116959  0.0412276  0.0921568  0.1591092
                              0.0022670 -0.0034511 -0.0866253  0.0627417  0.1918232  0.1481834  0.2178628  0.3535974  0.1617177
                             -0.0040120 -0.0037450  0.0981128  0.0627452  0.1163703 -0.0387502  0.1146716  0.1255645 -0.0148876
                              0.0108814 -0.0244636 -0.1208249 -0.0371446 -0.0966589  0.0612063 -0.1047318 -0.1105905  0.1044845
                             -0.0049388  0.0084452  0.0645327 -0.0314458 -0.0249683  0.0043910 -0.0650579 -0.0325223 -0.0058410
                             -0.0012082  0.0035936 -0.0148019  0.0632661  0.1057981 -0.0250438  0.1053316  0.1675697 -0.0268065
                              0.0057449 -0.0090310 -0.0754993 -0.0032876 -0.0420589  0.0104560  0.0174711 -0.0720295  0.0426820
                             -0.0143319  0.0293901  0.1239061 -0.0851635 -0.0674266  0.0320175 -0.0569294 -0.1683050 -0.0018010
                              0.0249667  0.1113402  0.0041361  0.0754450  0.0037269  0.0037051  0.0012371  0.0042457 -0.0006286
                             -0.0021784 -0.0043004  0.0476950 -0.0293591 -0.1619393 -0.0060663 -0.0293847 -0.0066463 -0.0151490
                             -0.0013952 -0.0057200  0.0045213  0.0185554  0.0102849 -0.0614109

 ONE-PARTICLE TRANSITION DENSITY MATRIX FOR STATES 2 1
 =====================================================

  
                   1             2
         1     0.0024402    -0.1047666
         2     1.4102810    -0.0024402

 ONE-PARTICLE DENSITY MATRIX FOR STATE 2
 =======================================

  
                   1             2
         1     0.9999629     0.0118458
         2     0.0118458     1.0000371

 NATURAL ORBITALS
 ================

  48 1.0118458 SYM 1  E-VEC   0.7059973  0.7082145

                      COEFFS -0.0005032 -0.0073686  0.1043961 -0.0162225 -0.0027062  0.0063544  0.0483083 -0.0291307 -0.1229618
                              0.0042306  0.0049665 -0.1292303 -0.0217366 -0.1166096 -0.2524178 -0.0353402 -0.2087924 -0.2660428
                              0.0014807 -0.0019665  0.0292632 -0.0128012 -0.0021412  0.0147302 -0.0167502 -0.0453518  0.1511138
                             -0.0000804 -0.0006291  0.0100722  0.0044209  0.0227253  0.0541882  0.0329245  0.0400725  0.0413778
                              0.0016375 -0.0044111  0.0152683 -0.0031152  0.0020332  0.0025060 -0.0005047 -0.0262444 -0.0742413
                             -0.0005491 -0.0014734  0.0291609  0.0043368  0.0458911  0.1004562  0.0166664  0.0521862  0.1359373
                              0.0024787 -0.0051417 -0.0554999 -0.0021590  0.0003658 -0.0189544  0.0249295  0.0310495  0.0248696
                              0.0049943 -0.0106809 -0.0820769  0.1062177  0.2783584  0.2059617  0.1947407  0.3877413  0.2097808
                             -0.0021048 -0.0012241  0.0501713 -0.0035959 -0.0079805 -0.0292111  0.0252554  0.0030274 -0.0329672
                              0.0149099 -0.0345822 -0.1095694 -0.0463664 -0.1402513  0.0798755 -0.1285381 -0.1301879  0.0686038
                             -0.0063862  0.0107613  0.0759439 -0.0152979  0.0145453 -0.0089739 -0.0513447  0.0188832 -0.0082812
                             -0.0005501  0.0018036 -0.0077726  0.0915842  0.1495487 -0.0342672  0.1202116  0.1909600 -0.0270231
                              0.0067647 -0.0125583 -0.0677776  0.0216781 -0.0142700  0.0004324  0.0375468 -0.0372193  0.0290041
                             -0.0171698  0.0359382  0.1131895 -0.1213770 -0.0981911  0.0549202 -0.0732221 -0.1755488  0.0201010
                              0.0332413  0.1033427 -0.0022504  0.0702073  0.0007861 -0.0019703  0.0017937  0.0040065  0.0014302
                              0.0017477 -0.0029665  0.0339955 -0.0004726 -0.0892254 -0.0083052 -0.0023680 -0.0098738 -0.0192142
                             -0.0008813 -0.0044699  0.0085064  0.0216141  0.0090764 -0.0483918

  49 0.9881542 SYM 1  E-VEC   0.7082145 -0.7059973

                      COEFFS  0.0082635 -0.0133207 -0.1391999  0.0549286  0.2148412  0.2515945  0.0476574  0.2265093  0.3576989
                             -0.0039129 -0.0005734  0.0951382  0.0027432 -0.0177874  0.0034816  0.0290346  0.0273674  0.0476923
                              0.0057219 -0.0157683 -0.0396440 -0.0136294 -0.0766544 -0.2201061  0.0119144 -0.0897040 -0.2910229
                             -0.0030562  0.0055685  0.0227210  0.0096013  0.0045966  0.0224444  0.0062383 -0.0071225  0.0258758
                             -0.0004784  0.0015004 -0.0081970  0.0072990  0.1059328  0.2200707  0.0105431  0.1375292  0.2802929
                              0.0023747 -0.0034093 -0.0397752 -0.0094488 -0.0050910 -0.0170501 -0.0227509 -0.0061824 -0.0565261
                             -0.0071396  0.0148345  0.0696379  0.0154661 -0.0862084 -0.1774179 -0.0333969 -0.0994550 -0.2005940
                              0.0018057 -0.0058424  0.0403236  0.0178037  0.0078088 -0.0030842 -0.1131567 -0.1116180 -0.0184351
                              0.0035728  0.0040794 -0.0886799 -0.0925767 -0.1730153  0.0255810 -0.1372009 -0.1749870 -0.0120276
                             -0.0004418 -0.0000737  0.0611798  0.0060613 -0.0039225 -0.0064963  0.0192967  0.0259452 -0.0791871
                              0.0005835 -0.0011576 -0.0151643  0.0292089  0.0500207 -0.0152456  0.0406341  0.0650911 -0.0000420
                              0.0011601 -0.0032824  0.0131743  0.0023518  0.0003096  0.0010654 -0.0285161 -0.0456493  0.0108458
                             -0.0013460  0.0001819  0.0389212  0.0264503  0.0452895 -0.0143902  0.0129677  0.0647164 -0.0313635
                              0.0030627 -0.0055483 -0.0619099 -0.0012502 -0.0030936  0.0098057  0.0071197  0.0621819  0.0227574
                             -0.0019873 -0.0539906 -0.0081262 -0.0364020 -0.0044940 -0.0072335  0.0000489 -0.0019927  0.0023288
                              0.0048453  0.0031156 -0.0334541  0.0411513  0.1399214  0.0002534  0.0392826 -0.0005009  0.0021662
                              0.0010923  0.0036172  0.0021394 -0.0045839 -0.0054595  0.0384312


 **********************************************************************************************************************************
 DATASETS  * FILE   NREC   LENGTH (MB)   RECORD NAMES
              1      20      353.18       500      610      700      900      950      970     1000      129      960     1100   
                                          VAR    BASINP    GEOM    SYMINP    ZMAT    AOBASIS   BASIS     P2S    ABASIS      S 
                                         1400     1410     1200     1210     1080     1600     1650     1700     1380     5100   
                                           T        V       H0       H01     AOSYM     SMH    MOLCAS    OPER     JKOP    CPSAMC    

              2       5        7.14       700     1000      520     2100     2140   
                                         GEOM     BASIS   MCVARS     RHF     MCSCF   

 PROGRAMS   *        TOTAL    CASSCF        HF       INT
 CPU TIMES  *       115.47    110.34      1.96      2.66
 REAL TIME  *       177.31 SEC
 DISK USED  *       623.25 MB      
 SF USED    *         1.45 GB      
 GA USED    *         0.01 MB       (max)       0.00 MB       (current)
 **********************************************************************************************************************************


 PROGRAM * OPT (Geometry optimization)     Authors: F. Eckert and H.-J. Werner


 BFGS update of hessian

 *** Long output written to logfile /home/debashree/Manadip/trans_SB_casscf_s1_10_6.log ***


 Geometry optimization using default procedure for command CASSCF

 Geometry written to block  1 of record 700

 Making model hessian for cartesian coordinates

 Entering Rational Function Geometry Optimization

 ITER.   ENERGY(OLD)    ENERGY(NEW)      DE          GRADMAX     GRADNORM    GRADRMS     STEPMAX     STEPLEN     STEPRMS   CPU-time
   1  -536.95196346  -536.95267349    -0.00071003  0.01201255  0.01927312  0.00026768  0.20251443  0.30000000  0.05883484     99.28
   2  -536.95267349  -536.95299796    -0.00032447  0.00334688  0.00667216  0.00009267  0.23465423  0.30000000  0.05883484    199.65
   3  -536.95299796  -536.95326889    -0.00027093  0.00131998  0.00339804  0.00004719  0.26038150  0.30000000  0.05883484    307.12
   4  -536.95326889  -536.95353532    -0.00026642  0.00231620  0.00553458  0.00007687  0.27041246  0.30000000  0.05883484    404.65
   5  -536.95353532  -536.95380642    -0.00027110  0.00282707  0.00697055  0.00009681  0.26472342  0.30000000  0.05883484    495.65
   6  -536.95380642  -536.95407241    -0.00026599  0.00304248  0.00705263  0.00009795  0.26205965  0.30000000  0.05883484    594.06
   7  -536.95407241  -536.95430255    -0.00023014  0.00261784  0.00594608  0.00008258  0.26047173  0.30000000  0.05883484    696.66
   8  -536.95430255  -536.95448910    -0.00018655  0.00204754  0.00467358  0.00006491  0.25377384  0.30000000  0.05883484    795.92
   9  -536.95448910  -536.95463364    -0.00014454  0.00160471  0.00389369  0.00005408  0.25203477  0.30000000  0.05883484    890.32
  10  -536.95463364  -536.95474908    -0.00011545  0.00205941  0.00372283  0.00005171  0.24993281  0.30000000  0.05883484    984.57
  11  -536.95474908  -536.95483024    -0.00008116  0.00174121  0.00319513  0.00004438  0.25897572  0.30000000  0.05883484   1081.43
  12  -536.95483024  -536.95490215    -0.00007191  0.00177234  0.00335493  0.00004660  0.26147838  0.30000000  0.05883484   1181.34
  13  -536.95490215  -536.95494395    -0.00004180  0.00097952  0.00212027  0.00002945  0.27717496  0.30000000  0.05883484   1272.40
  14  -536.95494395  -536.95499269    -0.00004874  0.00131426  0.00282707  0.00003926  0.28602563  0.30000000  0.05883484   1375.23
  15  -536.95499269  -536.95503161    -0.00003893  0.00081256  0.00216955  0.00003013  0.27439784  0.28888273  0.05665456   1471.14
  16  -536.95503161  -536.95506140    -0.00002978  0.00085012  0.00194788  0.00002705  0.28709474  0.30000000  0.05883484   1563.53
  17  -536.95506140  -536.95508283    -0.00002143  0.00079305  0.00194540  0.00002702  0.27253889  0.30000000  0.05883484   1662.72
  18  -536.95508283  -536.95509871    -0.00001589  0.00144541  0.00300826  0.00004178  0.28310276  0.30000000  0.05883484   1758.38
  19  -536.95509871  -536.95510522    -0.00000650  0.00118564  0.00250248  0.00003476  0.01404507  0.02174306  0.00426417   1852.40
  20  -536.95510522  -536.95511036    -0.00000514  0.00056230  0.00124053  0.00001723  0.10714530  0.11996592  0.02352725   1940.05
  21  -536.95511036  -536.95511216    -0.00000180  0.00032832  0.00064838  0.00000901  0.06884538  0.08187820  0.01605764   2038.18
  22  -536.95511216  -536.95511247    -0.00000031  0.00011322  0.00038499  0.00000535  0.02994948  0.03410364  0.00668827   2131.54

 END OF GEOMETRY OPTIMIZATION.

 Current geometry (xyz format, in Angstrom)

   26
 CASSCF000/6-31G  ENERGY=-536.95511247
 C         -1.3981815028        1.0272485822        0.4454805749
 C         -2.6677488244        1.7026793586        0.1302084591
 C         -2.7719699715        2.7265020316       -0.8144718838
 C         -3.9929707255        3.3217948383       -1.0853198602
 C         -5.1373175751        2.9149824534       -0.4128739147
 C         -5.0477811556        1.9096035813        0.5376063328
 C         -3.8256065421        1.3141451820        0.8070862422
 C         -0.2923451898        1.0274444676       -0.3058327350
 C          0.9805793566        0.3598055939        0.0119835925
 C          1.3141638176       -0.0738828025        1.2974518317
 C          2.5203397726       -0.7090316505        1.5424365159
 C          3.4262605200       -0.9181630795        0.5114699373
 C          3.1155391936       -0.4818785521       -0.7672485120
 C          1.9077362827        0.1526557545       -1.0112998144
 H         -1.4074492557        0.4653291963        1.3620943669
 H         -1.8966766998        3.0735998280       -1.3276415615
 H         -4.0498364253        4.1080475431       -1.8136679877
 H         -6.0813797183        3.3799055822       -0.6220987324
 H         -5.9245772030        1.5898970717        1.0675178300
 H         -3.7673264245        0.5348152814        1.5439120416
 H         -0.3064399511        1.5316324066       -1.2554222604
 H          0.6400880169        0.0984351160        2.1133865632
 H          2.7569544239       -1.0324730759        2.5380777903
 H          4.3611110456       -1.4080631878        0.7044042085
 H          3.8093382223       -0.6342875322       -1.5716938991
 H          1.6757027424        0.4848065018       -2.0060220257

 **********************************************************************************************************************************

 Geometry written to block  1 of record 700


 **********************************************************************************************************************************
 DATASETS  * FILE   NREC   LENGTH (MB)   RECORD NAMES
              1      20      353.18       500      610      700      900      950      970     1000      129      960     1100   
                                          VAR    BASINP    GEOM    SYMINP    ZMAT    AOBASIS   BASIS     P2S    ABASIS      S 
                                         1400     1410     1200     1210     1080     1600     1650     1700     1380     5100   
                                           T        V       H0       H01     AOSYM     SMH    MOLCAS    OPER     JKOP    CPSAMC    

              2       5        7.14       700     1000      520     2100     2140   
                                         GEOM     BASIS   MCVARS     RHF     MCSCF   

 PROGRAMS   *        TOTAL      OPTG    CASSCF        HF       INT
 CPU TIMES  *      2247.05   2131.55    110.34      1.96      2.66
 REAL TIME  *      3373.53 SEC
 DISK USED  *         1.98 GB      
 SF USED    *         1.45 GB      
 GA USED    *         0.01 MB       (max)       0.00 MB       (current)
 **********************************************************************************************************************************

 CASSCF/6-31G//CASSCF/6-31G energy=   -536.744287806844

    OPTG(CASSCF)        CASSCF          HF-SCF  
   -536.95511247   -536.72107457   -536.95088617
 **********************************************************************************************************************************
 Molpro calculation terminated
 Variable memory released
